
     Program PWSCF v.6.8 starts on 22Sep2021 at 21:22:45 

     This program is part of the open-source Quantum ESPRESSO suite
     for quantum simulation of materials; please cite
         "P. Giannozzi et al., J. Phys.:Condens. Matter 21 395502 (2009);
         "P. Giannozzi et al., J. Phys.:Condens. Matter 29 465901 (2017);
         "P. Giannozzi et al., J. Chem. Phys. 152 154105 (2020);
          URL http://www.quantum-espresso.org", 
     in publications or presentations arising from this work. More details at
     http://www.quantum-espresso.org/quote

     Parallel version (MPI), running on     8 processors

     MPI processes distributed on     1 nodes
     R & G space division:  proc/nbgrp/npool/nimage =       8
     187463 MiB available memory on the printing compute node when the environment starts
 
     Waiting for input...
     Reading input from standard input

     Current dimensions of program PWSCF are:
     Max number of different atomic species (ntypx) = 10
     Max number of k-points (npk) =  40000
     Max angular momentum in pseudopotentials (lmaxx) =  4

     Atomic positions and unit cell read from directory:
     ./pw_band.save/
     Atomic positions from file used, from input discarded
 
     file Mo.pbe-spn-kjpaw_psl.1.0.0.UPF: wavefunction(s)  4S 4D renormalized
     file S.pbe-nl-kjpaw_psl.1.0.0.UPF: wavefunction(s)  3S renormalized

     --------------------------------------------
     DFT-D3 Dispersion Correction (3-body terms):
     --------------------------------------------
       Reference C6 values for interpolation: 

         atom   Coordination number   C6
         S          0.000           268.01
         S          0.995           261.99
         S          1.990           251.62
         Mo         0.000          1691.79
         Mo         1.942          1004.01
         Mo        11.056           674.22

       Values used:

         atom   Coordination number  R0_AB[au]  C6      C8
         Mo         9.984            3.547    674.21  77634.20
         S          3.674            3.128    251.62  12327.25
         S          3.674            3.128    251.62  12327.25

         Molecular C6 ( Ry / a.u.^6 ) =      3323.66


     Subspace diagonalization in iterative solution of the eigenvalue problem:
     a serial algorithm will be used

 
     Parallelization info
     --------------------
     sticks:   dense  smooth     PW     G-vecs:    dense   smooth      PW
     Min          93      49     15                15619     6054    1033
     Max          94      50     16                15656     6065    1060
     Sum         745     397    121               125015    48471    8345
 
     Using Slab Decomposition
 


     bravais-lattice index     =            0
     lattice parameter (alat)  =       6.0033  a.u.
     unit-cell volume          =    1423.2746 (a.u.)^3
     number of atoms/cell      =            3
     number of atomic types    =            2
     number of electrons       =        26.00
     number of Kohn-Sham states=           17
     kinetic-energy cutoff     =      40.0000  Ry
     charge density cutoff     =     300.0000  Ry
     Exchange-correlation= SLA  PW   PBX  PBC
                           (   1   4   3   4   0   0   0)

     celldm(1)=   6.003258  celldm(2)=   0.000000  celldm(3)=   0.000000
     celldm(4)=   0.000000  celldm(5)=   0.000000  celldm(6)=   0.000000

     crystal axes: (cart. coord. in units of alat)
               a(1) = (   1.000000   0.000001   0.000000 )  
               a(2) = (  -0.499999   0.866027   0.000000 )  
               a(3) = (   0.000000   0.000000   7.596196 )  

     reciprocal axes: (cart. coord. in units 2 pi/alat)
               b(1) = (  1.000000  0.577348  0.000000 )  
               b(2) = ( -0.000001  1.154698  0.000000 )  
               b(3) = (  0.000000  0.000000  0.131645 )  


     PseudoPot. # 1 for Mo read from file:
     ../Mo.pbe-spn-kjpaw_psl.1.0.0.UPF
     MD5 check sum: 480e629fb77e6d77dc031999bb5df37d
     Pseudo is Projector augmented-wave + core cor, Zval = 14.0
     Generated using &quot;atomic&quot; code by A. Dal Corso  v.6.4
     Shape of augmentation charge: PSQ
     Using radial grid of 1229 points,  6 beta functions with: 
                l(1) =   0
                l(2) =   0
                l(3) =   1
                l(4) =   1
                l(5) =   2
                l(6) =   2
     Q(r) pseudized with 0 coefficients 


     PseudoPot. # 2 for S  read from file:
     ../S.pbe-nl-kjpaw_psl.1.0.0.UPF
     MD5 check sum: 4a495479a576325f7761bd721c52a6b2
     Pseudo is Projector augmented-wave + core cor, Zval =  6.0
     Generated using &quot;atomic&quot; code by A. Dal Corso  v.6.4
     Shape of augmentation charge: PSQ
     Using radial grid of 1151 points,  4 beta functions with: 
                l(1) =   0
                l(2) =   0
                l(3) =   1
                l(4) =   1
     Q(r) pseudized with 0 coefficients 


     atomic species   valence    mass     pseudopotential
        Mo            14.00    95.96000     Mo( 1.00)
        S              6.00    32.06000     S ( 1.00)

     No symmetry found



   Cartesian axes

     site n.     atom                  positions (alat units)
         1           Mo  tau(   1) = (  -0.0009173   0.5768795   2.8460435  )
         2           S   tau(   2) = (   0.4990845   0.2882051   2.3499908  )
         3           S   tau(   3) = (   0.4990838   0.2882045   3.3420903  )

     number of k points=    61  Gaussian smearing, width (Ry)=  0.1000
                       cart. coord. in units 2pi/alat
        k(    1) = (   0.0000000   0.0000000   0.0000000), wk =   0.0327869
        k(    2) = (   0.0250000   0.0144337   0.0000000), wk =   0.0327869
        k(    3) = (   0.0500000   0.0288674   0.0000000), wk =   0.0327869
        k(    4) = (   0.0750000   0.0433011   0.0000000), wk =   0.0327869
        k(    5) = (   0.1000000   0.0577348   0.0000000), wk =   0.0327869
        k(    6) = (   0.1249999   0.0721685   0.0000000), wk =   0.0327869
        k(    7) = (   0.1499999   0.0866023   0.0000000), wk =   0.0327869
        k(    8) = (   0.1749999   0.1010360   0.0000000), wk =   0.0327869
        k(    9) = (   0.1999999   0.1154697   0.0000000), wk =   0.0327869
        k(   10) = (   0.2249999   0.1299034   0.0000000), wk =   0.0327869
        k(   11) = (   0.2499999   0.1443371   0.0000000), wk =   0.0327869
        k(   12) = (   0.2749999   0.1587708   0.0000000), wk =   0.0327869
        k(   13) = (   0.2999999   0.1732045   0.0000000), wk =   0.0327869
        k(   14) = (   0.3249998   0.1876382   0.0000000), wk =   0.0327869
        k(   15) = (   0.3499998   0.2020719   0.0000000), wk =   0.0327869
        k(   16) = (   0.3749998   0.2165056   0.0000000), wk =   0.0327869
        k(   17) = (   0.3999998   0.2309393   0.0000000), wk =   0.0327869
        k(   18) = (   0.4249998   0.2453730   0.0000000), wk =   0.0327869
        k(   19) = (   0.4499998   0.2598068   0.0000000), wk =   0.0327869
        k(   20) = (   0.4749998   0.2742405   0.0000000), wk =   0.0327869
        k(   21) = (   0.4999998   0.2886742   0.0000000), wk =   0.0327869
        k(   22) = (   0.4916648   0.3031050   0.0000000), wk =   0.0327869
        k(   23) = (   0.4833297   0.3175359   0.0000000), wk =   0.0327869
        k(   24) = (   0.4749947   0.3319667   0.0000000), wk =   0.0327869
        k(   25) = (   0.4666597   0.3463976   0.0000000), wk =   0.0327869
        k(   26) = (   0.4583247   0.3608284   0.0000000), wk =   0.0327869
        k(   27) = (   0.4499897   0.3752593   0.0000000), wk =   0.0327869
        k(   28) = (   0.4416547   0.3896901   0.0000000), wk =   0.0327869
        k(   29) = (   0.4333197   0.4041210   0.0000000), wk =   0.0327869
        k(   30) = (   0.4249847   0.4185518   0.0000000), wk =   0.0327869
        k(   31) = (   0.4166497   0.4329827   0.0000000), wk =   0.0327869
        k(   32) = (   0.4083146   0.4474135   0.0000000), wk =   0.0327869
        k(   33) = (   0.3999796   0.4618444   0.0000000), wk =   0.0327869
        k(   34) = (   0.3916446   0.4762752   0.0000000), wk =   0.0327869
        k(   35) = (   0.3833096   0.4907060   0.0000000), wk =   0.0327869
        k(   36) = (   0.3749746   0.5051369   0.0000000), wk =   0.0327869
        k(   37) = (   0.3666396   0.5195677   0.0000000), wk =   0.0327869
        k(   38) = (   0.3583046   0.5339986   0.0000000), wk =   0.0327869
        k(   39) = (   0.3499696   0.5484294   0.0000000), wk =   0.0327869
        k(   40) = (   0.3416345   0.5628603   0.0000000), wk =   0.0327869
        k(   41) = (   0.3332995   0.5772911   0.0000000), wk =   0.0327869
        k(   42) = (   0.3166346   0.5484266   0.0000000), wk =   0.0327869
        k(   43) = (   0.2999696   0.5195620   0.0000000), wk =   0.0327869
        k(   44) = (   0.2833046   0.4906975   0.0000000), wk =   0.0327869
        k(   45) = (   0.2666396   0.4618329   0.0000000), wk =   0.0327869
        k(   46) = (   0.2499747   0.4329684   0.0000000), wk =   0.0327869
        k(   47) = (   0.2333097   0.4041038   0.0000000), wk =   0.0327869
        k(   48) = (   0.2166447   0.3752392   0.0000000), wk =   0.0327869
        k(   49) = (   0.1999797   0.3463747   0.0000000), wk =   0.0327869
        k(   50) = (   0.1833147   0.3175101   0.0000000), wk =   0.0327869
        k(   51) = (   0.1666498   0.2886456   0.0000000), wk =   0.0327869
        k(   52) = (   0.1499848   0.2597810   0.0000000), wk =   0.0327869
        k(   53) = (   0.1333198   0.2309165   0.0000000), wk =   0.0327869
        k(   54) = (   0.1166548   0.2020519   0.0000000), wk =   0.0327869
        k(   55) = (   0.0999899   0.1731873   0.0000000), wk =   0.0327869
        k(   56) = (   0.0833249   0.1443228   0.0000000), wk =   0.0327869
        k(   57) = (   0.0666599   0.1154582   0.0000000), wk =   0.0327869
        k(   58) = (   0.0499949   0.0865937   0.0000000), wk =   0.0327869
        k(   59) = (   0.0333300   0.0577291   0.0000000), wk =   0.0327869
        k(   60) = (   0.0166650   0.0288646   0.0000000), wk =   0.0327869
        k(   61) = (   0.0000000   0.0000000   0.0000000), wk =   0.0327869

     Dense  grid:   125015 G-vectors     FFT dimensions: (  36,  36, 256)

     Smooth grid:    48471 G-vectors     FFT dimensions: (  25,  25, 192)

     Estimated max dynamical RAM per process >      65.60 MB

     Estimated total dynamical RAM >     524.80 MB

     The potential is recalculated from file :
     ./pw_band.save/charge-density


     negative rho (up, down):  4.143E-04 0.000E+00
     Starting wfcs are   18 randomized atomic wfcs
     Checking if some PAW data can be deallocated... 

     Band Structure Calculation
     Davidson diagonalization with overlap

     ethr =  3.85E-08,  avg # of iterations = 16.9

     total cpu time spent up to now is       13.4 secs

     End of band structure calculation

          k = 0.0000 0.0000 0.0000 (  6019 PWs)   bands (ev):

   -62.6366 -36.8023 -36.5745 -36.5745 -15.8590 -14.5999  -7.3955  -4.3173
    -4.3173  -3.6244  -3.2245  -3.2245  -1.8580   0.9840   0.9840   1.1962
     1.1962

          k = 0.0250 0.0144 0.0000 (  6007 PWs)   bands (ev):

   -62.6364 -36.8018 -36.5769 -36.5750 -15.8496 -14.5959  -7.3845  -4.3396
    -4.3074  -3.6888  -3.2402  -3.1740  -1.8614   0.9682   1.0010   1.1665
     1.1856

          k = 0.0500 0.0289 0.0000 (  5981 PWs)   bands (ev):

   -62.6357 -36.8004 -36.5839 -36.5766 -15.8217 -14.5839  -7.3517  -4.4050
    -4.2781  -3.8296  -3.2862  -3.0759  -1.8726   0.9254   1.0504   1.0833
     1.1542

          k = 0.0750 0.0433 0.0000 (  5999 PWs)   bands (ev):

   -62.6345 -36.7982 -36.5955 -36.5793 -15.7756 -14.5642  -7.2984  -4.5091
    -4.2304  -3.9986  -3.3593  -2.9821  -1.8941   0.8679   0.9612   1.1000
     1.1321

          k = 0.1000 0.0577 0.0000 (  6039 PWs)   bands (ev):

   -62.6330 -36.7951 -36.6113 -36.5829 -15.7120 -14.5369  -7.2267  -4.6447
    -4.1802  -4.1651  -3.4547  -2.9126  -1.9297   0.8077   0.8241   1.0361
     1.2307

          k = 0.1250 0.0722 0.0000 (  6035 PWs)   bands (ev):

   -62.6310 -36.7912 -36.6308 -36.5874 -15.6317 -14.5026  -7.1395  -4.8033
    -4.3683  -4.0829  -3.5666  -2.8764  -1.9831   0.6736   0.7789   0.9593
     1.3481

          k = 0.1500 0.0866 0.0000 (  6051 PWs)   bands (ev):

   -62.6288 -36.7868 -36.6537 -36.5926 -15.5359 -14.4616  -7.0420  -4.9756
    -4.5607  -3.9860  -3.6900  -2.8774  -2.0586   0.5446   0.7748   0.8757
     1.4752

          k = 0.1750 0.1010 0.0000 (  6061 PWs)   bands (ev):

   -62.6262 -36.7817 -36.6791 -36.5984 -15.4261 -14.4147  -6.9412  -5.1515
    -4.7561  -3.8773  -3.8191  -2.9139  -2.1570   0.4424   0.7901   0.8087
     1.6061

          k = 0.2000 0.1155 0.0000 (  6061 PWs)   bands (ev):

   -62.6234 -36.7762 -36.7066 -36.6048 -15.3039 -14.3626  -6.8474  -5.3193
    -4.9532  -3.9528  -3.7562  -2.9795  -2.2750   0.3743   0.7068   0.8805
     1.7356

          k = 0.2250 0.1299 0.0000 (  6043 PWs)   bands (ev):

   -62.6205 -36.7705 -36.7354 -36.6114 -15.1714 -14.3063  -6.7757  -5.4653
    -5.1510  -4.0835  -3.6298  -3.0652  -2.4041   0.3424   0.6298   0.9843
     1.8594

          k = 0.2500 0.1443 0.0000 (  6048 PWs)   bands (ev):

   -62.6175 -36.7648 -36.7645 -36.6182 -15.0310 -14.2469  -6.7439  -5.5752
    -5.3478  -4.2104  -3.4999  -3.1615  -2.5317   0.3440   0.5623   1.1118
     1.9739

          k = 0.2750 0.1588 0.0000 (  6044 PWs)   bands (ev):

   -62.6145 -36.7941 -36.7586 -36.6250 -14.8854 -14.1857  -6.7654  -5.6411
    -5.5411  -4.3307  -3.3702  -3.2600  -2.6429   0.3739   0.5076   1.2539
     2.0773

          k = 0.3000 0.1732 0.0000 (  6058 PWs)   bands (ev):

   -62.6116 -36.8225 -36.7529 -36.6316 -14.7378 -14.1241  -6.8381  -5.7306
    -5.6684  -4.4425  -3.3545  -3.2449  -2.7238   0.4266   0.4671   1.4015
     2.1684

          k = 0.3250 0.1876 0.0000 (  6060 PWs)   bands (ev):

   -62.6088 -36.8494 -36.7474 -36.6379 -14.5917 -14.0636  -6.9457  -5.9078
    -5.6816  -4.5442  -3.4407  -3.1276  -2.7639   0.4417   0.4965   1.5464
     2.2466

          k = 0.3500 0.2021 0.0000 (  6072 PWs)   bands (ev):

   -62.6063 -36.8741 -36.7423 -36.6437 -14.4512 -14.0061  -7.0696  -6.0724
    -5.6956  -4.6345  -3.5162  -3.0216  -2.7604   0.4314   0.5780   1.6808
     2.3121

          k = 0.3750 0.2165 0.0000 (  6072 PWs)   bands (ev):

   -62.6040 -36.8961 -36.7377 -36.6489 -14.3207 -13.9532  -7.1949  -6.2200
    -5.7188  -4.7124  -3.5797  -2.9296  -2.7184   0.4338   0.6663   1.7989
     2.3656

          k = 0.4000 0.2309 0.0000 (  6086 PWs)   bands (ev):

   -62.6020 -36.9148 -36.7339 -36.6533 -14.2049 -13.9068  -7.3109  -6.3467
    -5.7504  -4.7773  -3.6310  -2.8537  -2.6504   0.4456   0.7564   1.8964
     2.4075

          k = 0.4250 0.2454 0.0000 (  6096 PWs)   bands (ev):

   -62.6004 -36.9298 -36.7307 -36.6568 -14.1085 -13.8685  -7.4096  -6.4493
    -5.7847  -4.8283  -3.6703  -2.7945  -2.5727   0.4624   0.8412   1.9714
     2.4389

          k = 0.4500 0.2598 0.0000 (  6080 PWs)   bands (ev):

   -62.5993 -36.9408 -36.7285 -36.6594 -14.0359 -13.8398  -7.4848  -6.5247
    -5.8148  -4.8650  -3.6979  -2.7525  -2.5022   0.4793   0.9134   2.0238
     2.4609

          k = 0.4750 0.2742 0.0000 (  6080 PWs)   bands (ev):

   -62.5986 -36.9474 -36.7271 -36.6610 -13.9907 -13.8221  -7.5319  -6.5709
    -5.8353  -4.8871  -3.7142  -2.7275  -2.4536   0.4914   0.9623   2.0546
     2.4738

          k = 0.5000 0.2887 0.0000 (  6068 PWs)   bands (ev):

   -62.5983 -36.9497 -36.7266 -36.6615 -13.9754 -13.8161  -7.5480  -6.5864
    -5.8425  -4.8944  -3.7196  -2.7191  -2.4362   0.4961   0.9800   2.0649
     2.4781

          k = 0.4917 0.3031 0.0000 (  6070 PWs)   bands (ev):

   -62.5983 -36.9494 -36.7265 -36.6622 -13.9740 -13.8152  -7.5438  -6.5893
    -5.8410  -4.8962  -3.7185  -2.7554  -2.4140   0.4971   0.9816   2.0707
     2.4648

          k = 0.4833 0.3175 0.0000 (  6084 PWs)   bands (ev):

   -62.5982 -36.9484 -36.7264 -36.6641 -13.9699 -13.8125  -7.5316  -6.5977
    -5.8366  -4.9009  -3.7154  -2.8438  -2.3678   0.4999   0.9865   2.0881
     2.4266

          k = 0.4750 0.3320 0.0000 (  6084 PWs)   bands (ev):

   -62.5981 -36.9468 -36.7261 -36.6674 -13.9631 -13.8082  -7.5111  -6.6118
    -5.8294  -4.9079  -3.7109  -2.9611  -2.3189   0.5035   0.9962   2.1156
     2.3678

          k = 0.4667 0.3464 0.0000 (  6100 PWs)   bands (ev):

   -62.5979 -36.9446 -36.7258 -36.6719 -13.9537 -13.8022  -7.4827  -6.6315
    -5.8197  -4.9160  -3.7060  -3.0976  -2.2747   0.5050   1.0112   2.1467
     2.2987

          k = 0.4583 0.3608 0.0000 (  6110 PWs)   bands (ev):

   -62.5977 -36.9418 -36.7254 -36.6775 -13.9419 -13.7946  -7.4465  -6.6566
    -5.8074  -4.9236  -3.7017  -3.2489  -2.2361   0.5024   1.0333   2.1425
     2.2622

          k = 0.4500 0.3753 0.0000 (  6102 PWs)   bands (ev):

   -62.5974 -36.9384 -36.7248 -36.6843 -13.9280 -13.7857  -7.4026  -6.6868
    -5.7930  -4.9295  -3.6994  -3.4118  -2.2023   0.4938   1.0636   2.0655
     2.2996

          k = 0.4417 0.3897 0.0000 (  6104 PWs)   bands (ev):

   -62.5972 -36.9344 -36.7243 -36.6920 -13.9120 -13.7755  -7.3513  -6.7217
    -5.7768  -4.9324  -3.7002  -3.5839  -2.1721   0.4771   1.1021   1.9665
     2.3625

          k = 0.4333 0.4041 0.0000 (  6116 PWs)   bands (ev):

   -62.5968 -36.9298 -36.7236 -36.7007 -13.8944 -13.7644  -7.2929  -6.7608
    -5.7594  -4.9313  -3.7651  -3.7029  -2.1440   0.4518   1.1485   1.8638
     2.4344

          k = 0.4250 0.4186 0.0000 (  6120 PWs)   bands (ev):

   -62.5965 -36.9247 -36.7229 -36.7103 -13.8754 -13.7524  -7.2279  -6.8030
    -5.7412  -4.9255  -3.9485  -3.7126  -2.1162   0.4183   1.2016   1.7632
     2.5111

          k = 0.4166 0.4330 0.0000 (  6110 PWs)   bands (ev):

   -62.5961 -36.9191 -36.7222 -36.7204 -13.8555 -13.7398  -7.1565  -6.8474
    -5.7230  -4.9145  -4.1349  -3.7268  -2.0876   0.3773   1.2602   1.6679
     2.5902

          k = 0.4083 0.4474 0.0000 (  6116 PWs)   bands (ev):

   -62.5957 -36.9130 -36.7312 -36.7215 -13.8350 -13.7270  -7.0794  -6.8930
    -5.7052  -4.8985  -4.3215  -3.7461  -2.0571   0.3296   1.3223   1.5795
     2.6688

          k = 0.4000 0.4618 0.0000 (  6122 PWs)   bands (ev):

   -62.5954 -36.9065 -36.7423 -36.7208 -13.8144 -13.7141  -6.9980  -6.9375
    -5.6891  -4.8776  -4.5056  -3.7706  -2.0243   0.2771   1.3861   1.4998
     2.7447

          k = 0.3916 0.4763 0.0000 (  6122 PWs)   bands (ev):

   -62.5950 -36.8996 -36.7537 -36.7201 -13.7942 -13.7016  -6.9848  -6.9078
    -5.6760  -4.8524  -4.6842  -3.7997  -1.9890   0.2211   1.4296   1.4504
     2.8165

          k = 0.3833 0.4907 0.0000 (  6140 PWs)   bands (ev):

   -62.5947 -36.8925 -36.7651 -36.7194 -13.7749 -13.6897  -7.0257  -6.8177
    -5.6679  -4.8541  -4.8230  -3.8327  -1.9518   0.1632   1.3700   1.5122
     2.8816

          k = 0.3750 0.5051 0.0000 (  6148 PWs)   bands (ev):

   -62.5944 -36.8850 -36.7764 -36.7188 -13.7571 -13.6787  -7.0636  -6.7245
    -5.6682  -5.0080  -4.7926  -3.8682  -1.9135   0.1064   1.3208   1.5706
     2.9391

          k = 0.3666 0.5196 0.0000 (  6148 PWs)   bands (ev):

   -62.5941 -36.8776 -36.7873 -36.7182 -13.7412 -13.6690  -7.0967  -6.6305
    -5.6822  -5.1397  -4.7612  -3.9043  -1.8758   0.0529   1.2818   1.6233
     2.9873

          k = 0.3583 0.5340 0.0000 (  6154 PWs)   bands (ev):

   -62.5939 -36.8703 -36.7974 -36.7178 -13.7279 -13.6609  -7.1239  -6.5390
    -5.7158  -5.2388  -4.7313  -3.9387  -1.8413   0.0058   1.2530   1.6682
     3.0250

          k = 0.3500 0.5484 0.0000 (  6158 PWs)   bands (ev):

   -62.5937 -36.8636 -36.8062 -36.7175 -13.7178 -13.6548  -7.1443  -6.4560
    -5.7676  -5.3001  -4.7059  -3.9678  -1.8128  -0.0316   1.2337   1.7029
     3.0520

          k = 0.3416 0.5629 0.0000 (  6162 PWs)   bands (ev):

   -62.5936 -36.8586 -36.8126 -36.7172 -13.7113 -13.6509  -7.1570  -6.3931
    -5.8199  -5.3292  -4.6883  -3.9880  -1.7937  -0.0558   1.2229   1.7252
     3.0680

          k = 0.3333 0.5773 0.0000 (  6170 PWs)   bands (ev):

   -62.5936 -36.8567 -36.8150 -36.7172 -13.7090 -13.6495  -7.1615  -6.3684
    -5.8431  -5.3369  -4.6818  -3.9955  -1.7869  -0.0644   1.2195   1.7330
     3.0732

          k = 0.3166 0.5484 0.0000 (  6166 PWs)   bands (ev):

   -62.5937 -36.8627 -36.8069 -36.7175 -13.7191 -13.6553  -7.1429  -6.4518
    -5.7555  -5.3155  -4.7086  -3.9637  -1.8165  -0.0296   1.2302   1.6991
     3.0541

          k = 0.3000 0.5196 0.0000 (  6146 PWs)   bands (ev):

   -62.5943 -36.8726 -36.7905 -36.7185 -13.7519 -13.6732  -7.0853  -6.6010
    -5.5922  -5.2526  -4.7781  -3.8765  -1.9007   0.0649   1.2547   1.5971
     3.0035

          k = 0.2833 0.4907 0.0000 (  6136 PWs)   bands (ev):

   -62.5952 -36.8800 -36.7718 -36.7204 -13.8100 -13.7032  -6.9875  -6.7333
    -5.4660  -5.1206  -4.8666  -3.7545  -2.0212   0.1898   1.2799   1.4373
     2.9333

          k = 0.2666 0.4618 0.0000 (  6118 PWs)   bands (ev):

   -62.5966 -36.8829 -36.7524 -36.7231 -13.8947 -13.7444  -6.8524  -6.8232
    -5.4081  -4.9571  -4.9150  -3.6150  -2.1547   0.3081   1.2447   1.2925
     2.8558

          k = 0.2500 0.4330 0.0000 (  6116 PWs)   bands (ev):

   -62.5984 -36.8806 -36.7331 -36.7267 -14.0046 -13.7960  -6.8742  -6.6731
    -5.3934  -5.0303  -4.6838  -3.4693  -2.2826   0.3817   1.0554   1.2808
     2.7805

          k = 0.2333 0.4041 0.0000 (  6106 PWs)   bands (ev):

   -62.6006 -36.8730 -36.7310 -36.7142 -14.1371 -13.8563  -6.8780  -6.4630
    -5.4087  -5.0840  -4.4458  -3.3252  -2.3930   0.3762   0.9121   1.2395
     2.7116

          k = 0.2166 0.3752 0.0000 (  6100 PWs)   bands (ev):

   -62.6032 -36.8600 -36.7362 -36.6959 -14.2879 -13.9234  -6.8448  -6.2235
    -5.4493  -5.1103  -4.2151  -3.1887  -2.4804   0.2952   0.8302   1.1700
     2.6439

          k = 0.2000 0.3464 0.0000 (  6068 PWs)   bands (ev):

   -62.6061 -36.8421 -36.7420 -36.6786 -14.4519 -13.9953  -6.7856  -5.9619
    -5.5072  -5.1037  -4.0032  -3.0646  -2.5433   0.1961   0.7773   1.0810
     2.5679

          k = 0.1833 0.3175 0.0000 (  6074 PWs)   bands (ev):

   -62.6093 -36.8197 -36.7484 -36.6623 -14.6239 -14.0700  -6.7183  -5.6900
    -5.5658  -5.0569  -3.8269  -2.9570  -2.5783   0.1284   0.7288   0.9823
     2.4731

          k = 0.1666 0.2886 0.0000 (  6064 PWs)   bands (ev):

   -62.6127 -36.7938 -36.7551 -36.6473 -14.7986 -14.1453  -6.6693  -5.5975
    -5.4268  -4.9563  -3.7099  -2.8690  -2.5721   0.1122   0.6858   0.8853
     2.3534

          k = 0.1500 0.2598 0.0000 (  6064 PWs)   bands (ev):

   -62.6162 -36.7652 -36.7620 -36.6335 -14.9712 -14.2195  -6.6675  -5.5704
    -5.2006  -4.7826  -3.6730  -2.8028  -2.5107   0.1463   0.6593   0.7997
     2.2079

          k = 0.1333 0.2309 0.0000 (  6076 PWs)   bands (ev):

   -62.6198 -36.7690 -36.7350 -36.6211 -15.1372 -14.2907  -6.7237  -5.4724
    -5.0152  -4.5423  -3.7114  -2.7599  -2.4005   0.2184   0.6628   0.7335
     2.0403

          k = 0.1167 0.2021 0.0000 (  6040 PWs)   bands (ev):

   -62.6232 -36.7757 -36.7044 -36.6102 -15.2926 -14.3573  -6.8226  -5.3176
    -4.8432  -4.2743  -3.7983  -2.7415  -2.2684   0.3159   0.6939   0.7056
     1.8585

          k = 0.1000 0.1732 0.0000 (  6038 PWs)   bands (ev):

   -62.6264 -36.7821 -36.6747 -36.6007 -15.4342 -14.4179  -6.9414  -5.1302
    -4.6657  -4.0125  -3.9064  -2.7487  -2.1415   0.4335   0.6849   0.7832
     1.6712

          k = 0.0833 0.1443 0.0000 (  6040 PWs)   bands (ev):

   -62.6293 -36.7878 -36.6469 -36.5926 -15.5588 -14.4713  -7.0626  -4.9313
    -4.4772  -4.0179  -3.7749  -2.7824  -2.0366   0.5728   0.7086   0.8810
     1.4889

          k = 0.0667 0.1155 0.0000 (  6020 PWs)   bands (ev):

   -62.6318 -36.7928 -36.6224 -36.5861 -15.6642 -14.5165  -7.1738  -4.7386
    -4.2790  -4.1189  -3.5753  -2.8434  -1.9596   0.7304   0.7629   0.9811
     1.3226

          k = 0.0500 0.0866 0.0000 (  6004 PWs)   bands (ev):

   -62.6339 -36.7968 -36.6022 -36.5810 -15.7482 -14.5525  -7.2672  -4.5677
    -4.2031  -4.0765  -3.4198  -2.9313  -1.9085   0.8318   0.8995   1.0694
     1.1819

          k = 0.0333 0.0577 0.0000 (  5988 PWs)   bands (ev):

   -62.6354 -36.7998 -36.5870 -36.5774 -15.8094 -14.5787  -7.3373  -4.4332
    -4.2655  -3.8791  -3.3101  -3.0420  -1.8779   0.9066   1.0495   1.0729
     1.1400

          k = 0.0167 0.0289 0.0000 (  6009 PWs)   bands (ev):

   -62.6363 -36.8016 -36.5777 -36.5752 -15.8465 -14.5946  -7.3808  -4.3470
    -4.3042  -3.7074  -3.2457  -3.1598  -1.8627   0.9630   1.0067   1.1569
     1.1819

          k = 0.0000 0.0000 0.0000 (  6019 PWs)   bands (ev):

   -62.6366 -36.8023 -36.5745 -36.5745 -15.8590 -14.5999  -7.3955  -4.3173
    -4.3173  -3.6244  -3.2245  -3.2245  -1.8580   0.9840   0.9840   1.1962
     1.1962

     Writing output data file ./pw_band.save/
 
     init_run     :      0.78s CPU      0.85s WALL (       1 calls)
     electrons    :     11.94s CPU     12.24s WALL (       1 calls)

     Called by init_run:
     wfcinit      :      0.00s CPU      0.00s WALL (       1 calls)
     potinit      :      0.14s CPU      0.16s WALL (       1 calls)
     hinit0       :      0.51s CPU      0.54s WALL (       1 calls)

     Called by electrons:
     c_bands      :     11.94s CPU     12.24s WALL (       1 calls)
     v_of_rho     :      0.03s CPU      0.04s WALL (       1 calls)
     newd         :      0.09s CPU      0.10s WALL (       1 calls)
     PAW_pot      :      0.08s CPU      0.09s WALL (       1 calls)

     Called by c_bands:
     init_us_2    :      0.01s CPU      0.01s WALL (      61 calls)
     cegterg      :     10.96s CPU     11.24s WALL (      62 calls)

     Called by *egterg:
     cdiaghg      :      0.98s CPU      1.00s WALL (    1093 calls)
     h_psi        :      8.85s CPU      9.09s WALL (    1155 calls)
     s_psi        :      0.10s CPU      0.10s WALL (    1155 calls)
     g_psi        :      0.04s CPU      0.04s WALL (    1032 calls)

     Called by h_psi:
     h_psi:calbec :      1.88s CPU      1.92s WALL (    1155 calls)
     vloc_psi     :      6.85s CPU      7.04s WALL (    1155 calls)
     add_vuspsi   :      0.11s CPU      0.11s WALL (    1155 calls)

     General routines
     calbec       :      1.87s CPU      1.92s WALL (    1155 calls)
     fft          :      0.05s CPU      0.08s WALL (      13 calls)
     ffts         :      0.00s CPU      0.00s WALL (       1 calls)
     fftw         :      6.43s CPU      6.60s WALL (   28334 calls)
     interpolate  :      0.00s CPU      0.00s WALL (       1 calls)
 
     Parallel routines
 
     PWSCF        :     14.52s CPU     16.81s WALL

 
   This run was terminated on:  21:23: 2  22Sep2021            

=------------------------------------------------------------------------------=
   JOB DONE.
=------------------------------------------------------------------------------=
