
     Program PWSCF v.6.8 starts on 22Sep2021 at 17:31:27 

     This program is part of the open-source Quantum ESPRESSO suite
     for quantum simulation of materials; please cite
         "P. Giannozzi et al., J. Phys.:Condens. Matter 21 395502 (2009);
         "P. Giannozzi et al., J. Phys.:Condens. Matter 29 465901 (2017);
         "P. Giannozzi et al., J. Chem. Phys. 152 154105 (2020);
          URL http://www.quantum-espresso.org", 
     in publications or presentations arising from this work. More details at
     http://www.quantum-espresso.org/quote

     Parallel version (MPI), running on     4 processors

     MPI processes distributed on     1 nodes
     R & G space division:  proc/nbgrp/npool/nimage =       4
     168442 MiB available memory on the printing compute node when the environment starts
 
     Waiting for input...
     Reading input from standard input

     Current dimensions of program PWSCF are:
     Max number of different atomic species (ntypx) = 10
     Max number of k-points (npk) =  40000
     Max angular momentum in pseudopotentials (lmaxx) =  4

     Atomic positions and unit cell read from directory:
     ./pw_band.save/
     Atomic positions from file used, from input discarded
 
     file C_pbe_paw.UPF: wavefunction(s)  2S 2P renormalized

     --------------------------------------------
     DFT-D3 Dispersion Correction (3-body terms):
     --------------------------------------------
       Reference C6 values for interpolation: 

         atom   Coordination number   C6
         C          0.000            98.23
         C          0.987            86.49
         C          1.998            58.72
         C          2.999            51.56
         C          3.984            36.41

       Values used:

         atom   Coordination number  R0_AB[au]  C6      C8
         C          3.306            2.750     48.44   1400.94
         C          3.306            2.750     48.44   1400.94

         Molecular C6 ( Ry / a.u.^6 ) =       193.76

     Message from routine setup:
     using ibrav=0 with symmetry is DISCOURAGED, use correct ibrav instead

     Subspace diagonalization in iterative solution of the eigenvalue problem:
     a serial algorithm will be used

 
     Parallelization info
     --------------------
     sticks:   dense  smooth     PW     G-vecs:    dense   smooth      PW
     Min         109      60     21                11643     4560     857
     Max         110      61     22                11664     4575     868
     Sum         439     241     85                46615    18259    3449
 
     Using Slab Decomposition
 


     bravais-lattice index     =            0
     lattice parameter (alat)  =       4.6593  a.u.
     unit-cell volume          =     532.9260 (a.u.)^3
     number of atoms/cell      =            2
     number of atomic types    =            1
     number of electrons       =         8.00
     number of Kohn-Sham states=           16
     kinetic-energy cutoff     =      40.0000  Ry
     charge density cutoff     =     300.0000  Ry
     Exchange-correlation= SLA  PW   PBX  PBC
                           (   1   4   3   4   0   0   0)

     celldm(1)=   4.659324  celldm(2)=   0.000000  celldm(3)=   0.000000
     celldm(4)=   0.000000  celldm(5)=   0.000000  celldm(6)=   0.000000

     crystal axes: (cart. coord. in units of alat)
               a(1) = (   1.000000   0.000001   0.000000 )  
               a(2) = (  -0.500000   0.866026   0.000000 )  
               a(3) = (   0.000000   0.000000   6.083691 )  

     reciprocal axes: (cart. coord. in units 2 pi/alat)
               b(1) = (  1.000000  0.577349  0.000000 )  
               b(2) = ( -0.000001  1.154700  0.000000 )  
               b(3) = (  0.000000  0.000000  0.164374 )  


     PseudoPot. # 1 for C  read from file:
     ../C_pbe_paw.UPF
     MD5 check sum: 141bb66bc2884774a16346b0c33000d4
     Pseudo is Projector augmented-wave + core cor, Zval =  4.0
     Generated using &quot;atomic&quot; code by A. Dal Corso  v.6.4
     Shape of augmentation charge: PSQ
     Using radial grid of 1073 points,  4 beta functions with: 
                l(1) =   0
                l(2) =   0
                l(3) =   1
                l(4) =   1
     Q(r) pseudized with 0 coefficients 


     atomic species   valence    mass     pseudopotential
        C              4.00    12.01070     C ( 1.00)

      2 Sym. Ops. (no inversion) found



   Cartesian axes

     site n.     atom                  positions (alat units)
         1           C   tau(   1) = (  -0.0000447   0.0000258   2.7078472  )
         2           C   tau(   2) = (   0.0000401   0.5773277   2.7078550  )

     number of k points=    61  Gaussian smearing, width (Ry)=  0.1000
                       cart. coord. in units 2pi/alat
        k(    1) = (   0.0000000   0.0000000   0.0000000), wk =   0.0327869
        k(    2) = (  -0.0000000   0.0288675   0.0000000), wk =   0.0327869
        k(    3) = (  -0.0000000   0.0577350   0.0000000), wk =   0.0327869
        k(    4) = (  -0.0000000   0.0866025   0.0000000), wk =   0.0327869
        k(    5) = (  -0.0000001   0.1154700   0.0000000), wk =   0.0327869
        k(    6) = (  -0.0000001   0.1443375   0.0000000), wk =   0.0327869
        k(    7) = (  -0.0000001   0.1732050   0.0000000), wk =   0.0327869
        k(    8) = (  -0.0000001   0.2020725   0.0000000), wk =   0.0327869
        k(    9) = (  -0.0000001   0.2309400   0.0000000), wk =   0.0327869
        k(   10) = (  -0.0000001   0.2598075   0.0000000), wk =   0.0327869
        k(   11) = (  -0.0000002   0.2886749   0.0000000), wk =   0.0327869
        k(   12) = (  -0.0000002   0.3175424   0.0000000), wk =   0.0327869
        k(   13) = (  -0.0000002   0.3464099   0.0000000), wk =   0.0327869
        k(   14) = (  -0.0000002   0.3752774   0.0000000), wk =   0.0327869
        k(   15) = (  -0.0000002   0.4041449   0.0000000), wk =   0.0327869
        k(   16) = (  -0.0000002   0.4330124   0.0000000), wk =   0.0327869
        k(   17) = (  -0.0000003   0.4618799   0.0000000), wk =   0.0327869
        k(   18) = (  -0.0000003   0.4907474   0.0000000), wk =   0.0327869
        k(   19) = (  -0.0000003   0.5196149   0.0000000), wk =   0.0327869
        k(   20) = (  -0.0000003   0.5484824   0.0000000), wk =   0.0327869
        k(   21) = (  -0.0000003   0.5773499   0.0000000), wk =   0.0327869
        k(   22) = (   0.0166647   0.5773470   0.0000000), wk =   0.0327869
        k(   23) = (   0.0333297   0.5773441   0.0000000), wk =   0.0327869
        k(   24) = (   0.0499947   0.5773412   0.0000000), wk =   0.0327869
        k(   25) = (   0.0666597   0.5773383   0.0000000), wk =   0.0327869
        k(   26) = (   0.0833247   0.5773354   0.0000000), wk =   0.0327869
        k(   27) = (   0.0999897   0.5773325   0.0000000), wk =   0.0327869
        k(   28) = (   0.1166547   0.5773296   0.0000000), wk =   0.0327869
        k(   29) = (   0.1333197   0.5773267   0.0000000), wk =   0.0327869
        k(   30) = (   0.1499847   0.5773238   0.0000000), wk =   0.0327869
        k(   31) = (   0.1666497   0.5773209   0.0000000), wk =   0.0327869
        k(   32) = (   0.1833147   0.5773180   0.0000000), wk =   0.0327869
        k(   33) = (   0.1999797   0.5773151   0.0000000), wk =   0.0327869
        k(   34) = (   0.2166447   0.5773122   0.0000000), wk =   0.0327869
        k(   35) = (   0.2333097   0.5773093   0.0000000), wk =   0.0327869
        k(   36) = (   0.2499747   0.5773064   0.0000000), wk =   0.0327869
        k(   37) = (   0.2666397   0.5773035   0.0000000), wk =   0.0327869
        k(   38) = (   0.2833047   0.5773007   0.0000000), wk =   0.0327869
        k(   39) = (   0.2999697   0.5772978   0.0000000), wk =   0.0327869
        k(   40) = (   0.3166347   0.5772949   0.0000000), wk =   0.0327869
        k(   41) = (   0.3332997   0.5772920   0.0000000), wk =   0.0327869
        k(   42) = (   0.3166347   0.5484274   0.0000000), wk =   0.0327869
        k(   43) = (   0.2999697   0.5195628   0.0000000), wk =   0.0327869
        k(   44) = (   0.2833047   0.4906982   0.0000000), wk =   0.0327869
        k(   45) = (   0.2666397   0.4618336   0.0000000), wk =   0.0327869
        k(   46) = (   0.2499748   0.4329690   0.0000000), wk =   0.0327869
        k(   47) = (   0.2333098   0.4041044   0.0000000), wk =   0.0327869
        k(   48) = (   0.2166448   0.3752398   0.0000000), wk =   0.0327869
        k(   49) = (   0.1999798   0.3463752   0.0000000), wk =   0.0327869
        k(   50) = (   0.1833148   0.3175106   0.0000000), wk =   0.0327869
        k(   51) = (   0.1666498   0.2886460   0.0000000), wk =   0.0327869
        k(   52) = (   0.1499849   0.2597814   0.0000000), wk =   0.0327869
        k(   53) = (   0.1333199   0.2309168   0.0000000), wk =   0.0327869
        k(   54) = (   0.1166549   0.2020522   0.0000000), wk =   0.0327869
        k(   55) = (   0.0999899   0.1731876   0.0000000), wk =   0.0327869
        k(   56) = (   0.0833249   0.1443230   0.0000000), wk =   0.0327869
        k(   57) = (   0.0666599   0.1154584   0.0000000), wk =   0.0327869
        k(   58) = (   0.0499950   0.0865938   0.0000000), wk =   0.0327869
        k(   59) = (   0.0333300   0.0577292   0.0000000), wk =   0.0327869
        k(   60) = (   0.0166650   0.0288646   0.0000000), wk =   0.0327869
        k(   61) = (   0.0000000   0.0000000   0.0000000), wk =   0.0327869

     Dense  grid:    46615 G-vectors     FFT dimensions: (  25,  25, 160)

     Smooth grid:    18259 G-vectors     FFT dimensions: (  20,  20, 120)

     Estimated max dynamical RAM per process >      20.45 MB

     Estimated total dynamical RAM >      81.82 MB

     Check: negative core charge=   -0.000003

     The potential is recalculated from file :
     ./pw_band.save/charge-density


     negative rho (up, down):  2.005E-05 0.000E+00
     Starting wfcs are    8 randomized atomic wfcs +    8 random wfcs
     Checking if some PAW data can be deallocated... 

     Band Structure Calculation
     Davidson diagonalization with overlap

     ethr =  1.25E-07,  avg # of iterations = 22.8

     total cpu time spent up to now is       13.0 secs

     End of band structure calculation

          k = 0.0000 0.0000 0.0000 (  2289 PWs)   bands (ev):

   -21.2366  -9.3321  -4.7567  -4.7495   1.4393   2.2728   2.5488   4.5101
     5.3512   6.6259   6.6353   8.4879   9.6125   9.7255  10.8119  13.8244

          k =-0.0000 0.0289 0.0000 (  2289 PWs)   bands (ev):

   -21.2218  -9.3145  -4.8166  -4.7837   1.4594   2.2931   2.5691   4.5302
     5.3710   6.6419   6.6931   8.5075   9.6329   9.6736  10.8378  13.8425

          k =-0.0000 0.0577 0.0000 (  2281 PWs)   bands (ev):

   -21.1775  -9.2614  -4.9972  -4.8787   1.5199   2.3540   2.6303   4.5905
     5.4302   6.6665   6.8847   8.5661   9.5194   9.6938  10.9175  13.8968

          k =-0.0000 0.0866 0.0000 (  2290 PWs)   bands (ev):

   -21.1038  -9.1733  -5.2877  -5.0296   1.6206   2.4555   2.7321   4.6908
     5.5290   6.6950   7.1954   8.6636   9.2681   9.7951  11.0555  13.9867

          k =-0.0000 0.1155 0.0000 (  2290 PWs)   bands (ev):

   -21.0006  -9.0501  -5.6732  -5.2255   1.7617   2.5975   2.8747   4.8312
     5.6671   6.7150   7.6148   8.7972   8.9299   9.9362  11.2560  14.1113

          k =-0.0000 0.1443 0.0000 (  2280 PWs)   bands (ev):

   -20.8680  -8.8922  -6.1378  -5.4552   1.9431   2.7799   3.0581   5.0115
     5.8436   6.7168   8.1305   8.5043   8.9775  10.1168  11.5201  14.2693

          k =-0.0000 0.1732 0.0000 (  2278 PWs)   bands (ev):

   -20.7063  -8.7000  -6.6658  -5.7081   2.1647   3.0027   3.2823   5.2312
     6.0559   6.6980   8.0149   8.7284   9.1907  10.3363  11.8429  14.4588

          k =-0.0000 0.2021 0.0000 (  2276 PWs)   bands (ev):

   -20.5156  -8.4741  -7.2424  -5.9736   2.4265   3.2656   3.5471   5.4897
     6.2913   6.6719   7.4668   9.3968   9.4424  10.5946  12.2141  14.6767

          k =-0.0000 0.2309 0.0000 (  2276 PWs)   bands (ev):

   -20.2961  -8.2151  -7.8549  -6.2428   2.7285   3.5682   3.8527   5.7833
     6.4535   6.7381   6.8750   9.7316  10.1242  10.8916  12.6192  14.9180

          k =-0.0000 0.2598 0.0000 (  2282 PWs)   bands (ev):

   -20.0480  -8.4923  -7.9242  -6.5090   3.0704   3.9092   4.1988   6.0448
     6.3173   6.4260   7.0190  10.0576  10.8997  11.2271  13.0394  15.1739

          k =-0.0000 0.2887 0.0000 (  2286 PWs)   bands (ev):

   -19.7718  -9.1456  -7.6024  -6.7657   3.4521   4.2837   4.5853   5.5468
     6.3437   6.5361   7.3860  10.4192  11.6010  11.7124  13.4497  15.4277

          k =-0.0000 0.3175 0.0000 (  2276 PWs)   bands (ev):

   -19.4676  -9.8075  -7.2514  -7.0083   3.8734   4.6097   4.9657   5.0118
     6.2504   6.9457   7.8012  10.8149  12.0130  12.5516  13.8140  15.6442

          k =-0.0000 0.3464 0.0000 (  2272 PWs)   bands (ev):

   -19.1362 -10.4712  -7.2331  -6.8736   4.1211   4.3337   5.2230   5.4760
     6.1585   7.4001   8.2588  11.2421  12.4624  13.4048  14.0728  15.7440

          k =-0.0000 0.3753 0.0000 (  2264 PWs)   bands (ev):

   -18.7780 -11.1317  -7.4373  -6.4722   3.4370   4.8317   5.7134   5.9393
     6.1131   7.8940   8.7570  11.6968  12.9480  14.1314  14.2585  15.5890

          k =-0.0000 0.4041 0.0000 (  2272 PWs)   bands (ev):

   -18.3940 -11.7844  -7.6181  -6.0522   2.7526   5.3618   5.9689   6.2525
     6.5561   8.4257   9.2948  12.1708  13.4637  13.8939  15.0952  15.1222

          k =-0.0000 0.4330 0.0000 (  2286 PWs)   bands (ev):

   -17.9856 -12.4249  -7.7738  -5.6207   2.0878   5.8017   6.0364   6.8325
     7.1403   8.9938   9.8715  12.6424  13.3361  14.0372  14.4661  15.1422

          k =-0.0000 0.4619 0.0000 (  2294 PWs)   bands (ev):

   -17.5547 -13.0485  -7.9031  -5.1894   1.4598   5.7973   6.5940   7.4513
     7.7688   9.5961  10.4861  12.6200  12.9950  13.8294  14.1968  14.6239

          k =-0.0000 0.4907 0.0000 (  2282 PWs)   bands (ev):

   -17.1056 -13.6490  -8.0046  -4.7779   0.8918   5.7526   7.2414   8.1074
     8.4384  10.2289  11.1362  11.8271  12.6462  13.2731  13.7868  14.8909

          k =-0.0000 0.5196 0.0000 (  2278 PWs)   bands (ev):

   -16.6488 -14.2150  -8.0778  -4.4186   0.4189   5.7172   7.9296   8.7987
     9.1479  10.8780  11.0076  11.8288  11.9027  12.3771  13.6932  14.6672

          k =-0.0000 0.5485 0.0000 (  2272 PWs)   bands (ev):

   -16.2210 -14.7086  -8.1219  -4.1617   0.0931   5.6951   8.6528   9.5210
     9.8942  10.2064  11.0358  11.5134  11.6321  12.5491  13.0961  14.0728

          k =-0.0000 0.5773 0.0000 (  2268 PWs)   bands (ev):

   -15.9935 -14.9582  -8.1366  -4.0663  -0.0254   5.6877   9.3454   9.4802
    10.1810  10.3799  10.6748  10.7002  12.1179  12.5834  13.2713  13.3279

          k = 0.0167 0.5773 0.0000 (  2266 PWs)   bands (ev):

   -15.9893 -14.9540  -8.1589  -4.0603  -0.0268   5.7177   9.3513   9.4865
    10.1819  10.3867  10.6813  10.7069  12.1155  12.5902  13.2765  13.3339

          k = 0.0333 0.5773 0.0000 (  2282 PWs)   bands (ev):

   -15.9767 -14.9415  -8.2250  -4.0425  -0.0312   5.8072   9.3690   9.5052
    10.1842  10.4070  10.7009  10.7268  12.1082  12.6104  13.2918  13.3519

          k = 0.0500 0.5773 0.0000 (  2278 PWs)   bands (ev):

   -15.9556 -14.9206  -8.3331  -4.0124  -0.0386   5.9541   9.3984   9.5364
    10.1865  10.4410  10.7337  10.7599  12.0954  12.6442  13.3173  13.3818

          k = 0.0667 0.5773 0.0000 (  2282 PWs)   bands (ev):

   -15.9260 -14.8916  -8.4803  -3.9704  -0.0498   6.1552   9.4394   9.5800
    10.1862  10.4884  10.7794  10.8063  12.0766  12.6914  13.3524  13.4236

          k = 0.0833 0.5773 0.0000 (  2278 PWs)   bands (ev):

   -15.8881 -14.8545  -8.6627  -3.9165  -0.0655   6.4062   9.4919   9.6360
    10.1797  10.5495  10.8382  10.8660  12.0523  12.7521  13.3968  13.4771

          k = 0.1000 0.5773 0.0000 (  2272 PWs)   bands (ev):

   -15.8417 -14.8096  -8.8760  -3.8506  -0.0868   6.7028   9.5556   9.7041
    10.1620  10.6241  10.9099  10.9388  12.0247  12.8264  13.4498  13.5420

          k = 0.1167 0.5773 0.0000 (  2272 PWs)   bands (ev):

   -15.7869 -14.7572  -9.1162  -3.7728  -0.1146   7.0394   9.6304   9.7843
    10.1273  10.7122  10.9945  11.0247  11.9986  12.9141  13.5104  13.6181

          k = 0.1333 0.5773 0.0000 (  2268 PWs)   bands (ev):

   -15.7237 -14.6975  -9.3784  -3.6831  -0.1503   7.4107   9.7159   9.8764
    10.0702  10.8139  11.0920  11.1238  11.9816  13.0152  13.5773  13.7049

          k = 0.1500 0.5773 0.0000 (  2264 PWs)   bands (ev):

   -15.6521 -14.6314  -9.6582  -3.5815  -0.1957   7.8113   9.8116   9.9767
     9.9907  10.9292  11.2021  11.2358  11.9820  13.1298  13.6488  13.8020

          k = 0.1666 0.5773 0.0000 (  2258 PWs)   bands (ev):

   -15.5721 -14.5593  -9.9513  -3.4683  -0.2522   8.2353   9.8787   9.9170
    10.0959  11.0579  11.3247  11.3609  12.0068  13.2579  13.7228  13.9086

          k = 0.1833 0.5773 0.0000 (  2252 PWs)   bands (ev):

   -15.4837 -14.4825 -10.2535  -3.3433  -0.3212   8.6759   9.7505  10.0314
    10.2226  11.2002  11.4597  11.4987  12.0593  13.3994  13.7965  14.0239

          k = 0.2000 0.5773 0.0000 (  2254 PWs)   bands (ev):

   -15.3869 -14.4024 -10.5605  -3.2065  -0.4047   9.1258   9.6102  10.1538
    10.3607  11.3560  11.6068  11.6494  12.1397  13.5543  13.8667  14.1464

          k = 0.2166 0.5773 0.0000 (  2254 PWs)   bands (ev):

   -15.2818 -14.3213 -10.8675  -3.0582  -0.5041   9.4667   9.5757  10.2829
    10.5112  11.5253  11.7656  11.8127  12.2462  13.7226  13.9300  14.2745

          k = 0.2333 0.5773 0.0000 (  2254 PWs)   bands (ev):

   -15.1684 -14.2425 -11.1689  -2.8984  -0.6208   9.3289  10.0104  10.4172
    10.6774  11.7080  11.9357  11.9885  12.3760  13.9043  13.9842  14.4051

          k = 0.2500 0.5773 0.0000 (  2252 PWs)   bands (ev):

   -15.0466 -14.1714 -11.4575  -2.7272  -0.7555   9.2039  10.4048  10.5547
    10.8701  11.9042  12.1165  12.1767  12.5260  14.0284  14.0993  14.5320

          k = 0.2666 0.5773 0.0000 (  2252 PWs)   bands (ev):

   -14.9165 -14.1159 -11.7238  -2.5446  -0.9088   9.0973  10.6923  10.7176
    11.1090  12.1138  12.3072  12.3768  12.6925  14.0651  14.3076  14.6281

          k = 0.2833 0.5773 0.0000 (  2256 PWs)   bands (ev):

   -14.7782 -14.0882 -11.9543  -2.3509  -1.0810   9.0128  10.8270  10.9361
    11.3762  12.3368  12.5068  12.5874  12.8700  14.1000  14.4402  14.5292

          k = 0.3000 0.5773 0.0000 (  2256 PWs)   bands (ev):

   -14.6316 -14.1039 -12.1324  -2.1460  -1.2717   8.9525  10.9542  11.0892
    11.5986  12.5732  12.7140  12.8044  13.0468  14.0225  14.1415  14.3396

          k = 0.3166 0.5773 0.0000 (  2261 PWs)   bands (ev):

   -14.4768 -14.1775 -12.2425  -1.9301  -1.4797   8.9171  11.0691  11.1793
    11.7209  12.8229  12.9274  13.0195  13.1784  13.6183  13.9643  14.1996

          k = 0.3333 0.5773 0.0000 (  2259 PWs)   bands (ev):

   -14.3155 -14.3127 -12.2783  -1.7069  -1.7007   8.9057  11.1648  11.1672
    11.7476  13.0852  13.0875  13.1450  13.1475  13.2886  13.7905  14.2835

          k = 0.3166 0.5484 0.0000 (  2255 PWs)   bands (ev):

   -14.7394 -13.9644 -12.1625  -2.1945  -1.2191   8.9436  10.6984  11.2886
    11.7206  12.2791  12.2834  13.5977  13.6539  13.6606  13.9515  14.2395

          k = 0.3000 0.5196 0.0000 (  2255 PWs)   bands (ev):

   -15.2714 -13.5821 -11.8906  -2.7296  -0.6925   9.0172   9.9190  11.2639
    11.3073  11.4253  11.6740  13.4475  13.7181  14.0831  14.2171  14.2723

          k = 0.2833 0.4907 0.0000 (  2257 PWs)   bands (ev):

   -15.8371 -13.1683 -11.5330  -3.2927  -0.1266   9.0044   9.0755  10.3627
    10.7254  11.2350  11.3724  12.7117  12.9777  14.6252  14.7208  14.9427

          k = 0.2666 0.4618 0.0000 (  2271 PWs)   bands (ev):

   -16.4034 -12.7237 -11.1217  -3.8690   0.4766   8.2395   8.7040   9.4838
    10.2967  10.9727  11.0993  12.1151  12.1670  15.2304  15.3331  15.4348

          k = 0.2500 0.4330 0.0000 (  2271 PWs)   bands (ev):

   -16.9548 -12.2491 -10.6723  -4.4458   1.1144   7.4365   8.1227   8.6508
     9.9552  10.5123  10.9250  11.3783  11.8381  14.8891  15.3866  15.8842

          k = 0.2333 0.4041 0.0000 (  2289 PWs)   bands (ev):

   -17.4832 -11.7460 -10.1944  -5.0129   1.7833   6.6757   7.4473   7.8681
     9.4610  10.0246  10.6342  10.7279  11.8762  14.3813  14.7095  16.5418

          k = 0.2166 0.3752 0.0000 (  2295 PWs)   bands (ev):

   -17.9836 -11.2156  -9.6948  -5.5620   2.4797   5.9619   6.7706   7.1375
     8.8725   9.5263   9.9492  10.5181  11.9392  14.0387  14.1254  17.0507

          k = 0.2000 0.3464 0.0000 (  2287 PWs)   bands (ev):

   -18.4530 -10.6600  -9.1799  -6.0864   3.1982   5.2976   6.1240   6.4600
     8.2717   9.0160   9.3431  10.2999  11.7722  13.4026  14.2581  17.0301

          k = 0.1833 0.3175 0.0000 (  2285 PWs)   bands (ev):

   -18.8892 -10.0819  -8.6561  -6.5809   3.9330   4.6844   5.5194   5.8360
     7.6941   8.4891   8.8320  10.0738  11.4056  12.8096  14.6590  16.4421

          k = 0.1666 0.2886 0.0000 (  2273 PWs)   bands (ev):

   -19.2908  -9.4847  -8.1301  -7.0416   4.1230   4.6767   4.9621   5.2658
     7.1545   7.9684   8.4007   9.8374  10.9693  12.2634  15.0669  15.6269

          k = 0.1500 0.2598 0.0000 (  2287 PWs)   bands (ev):

   -19.6565  -8.8733  -7.6101  -7.4652   3.6141   4.4548   4.7497   5.4203
     6.6595   7.4802   8.0276   9.5842  10.5314  11.7661  14.7532  15.2337

          k = 0.1333 0.2309 0.0000 (  2287 PWs)   bands (ev):

   -19.9854  -8.2536  -7.8493  -7.1040   3.1583   3.9991   4.2878   6.1530
     6.2127   7.0369   7.7043   9.3049  10.1195  11.3190  13.8956  15.1284

          k = 0.1167 0.2021 0.0000 (  2281 PWs)   bands (ev):

   -20.2769  -8.1919  -7.6338  -6.6210   2.7557   3.5958   3.8802   5.8162
     6.6431   6.8613   7.4281   8.9865   9.7461  10.9227  13.1038  14.8999

          k = 0.1000 0.1732 0.0000 (  2289 PWs)   bands (ev):

   -20.5305  -8.4914  -7.0253  -6.1720   2.4065   3.2455   3.5268   5.4711
     6.3006   7.1975   7.5300   8.6176   9.4169  10.5778  12.4169  14.6466

          k = 0.0833 0.1443 0.0000 (  2295 PWs)   bands (ev):

   -20.7457  -8.7466  -6.4427  -5.7671   2.1110   2.9487   3.2279   5.1782
     6.0105   7.0111   8.1420   8.1982   9.1354  10.2848  11.8609  14.4089

          k = 0.0667 0.1155 0.0000 (  2283 PWs)   bands (ev):

   -20.9221  -8.9565  -5.9057  -5.4171   1.8691   2.7056   2.9834   4.9381
     5.7731   6.8669   7.7504   8.6786   8.9034  10.0439  11.4419  14.2041

          k = 0.0500 0.0866 0.0000 (  2281 PWs)   bands (ev):

   -21.0595  -9.1205  -5.4397  -5.1325   1.6811   2.5163   2.7932   4.7510
     5.5884   6.7611   7.3176   8.7221   9.1210   9.8558  11.1467  14.0400

          k = 0.0333 0.0577 0.0000 (  2283 PWs)   bands (ev):

   -21.1579  -9.2379  -5.0738  -4.9221   1.5467   2.3810   2.6574   4.6172
     5.4566   6.6894   6.9540   8.5921   9.4517   9.7209  10.9543  13.9208

          k = 0.0167 0.0289 0.0000 (  2287 PWs)   bands (ev):

   -21.2169  -9.3086  -4.8382  -4.7930   1.4661   2.2998   2.5759   4.5369
     5.3775   6.6484   6.7112   8.5140   9.6396   9.6564  10.8466  13.8485

          k = 0.0000 0.0000 0.0000 (  2289 PWs)   bands (ev):

   -21.2366  -9.3321  -4.7567  -4.7495   1.4393   2.2728   2.5488   4.5101
     5.3512   6.6259   6.6353   8.4879   9.6125   9.7255  10.8119  13.8244

     Writing output data file ./pw_band.save/
 
     init_run     :      0.47s CPU      0.54s WALL (       1 calls)
     electrons    :     11.87s CPU     12.18s WALL (       1 calls)

     Called by init_run:
     wfcinit      :      0.00s CPU      0.00s WALL (       1 calls)
     potinit      :      0.10s CPU      0.11s WALL (       1 calls)
     hinit0       :      0.26s CPU      0.31s WALL (       1 calls)

     Called by electrons:
     c_bands      :     11.86s CPU     12.18s WALL (       1 calls)
     v_of_rho     :      0.03s CPU      0.03s WALL (       1 calls)
     newd         :      0.03s CPU      0.03s WALL (       1 calls)
     PAW_pot      :      0.06s CPU      0.06s WALL (       1 calls)

     Called by c_bands:
     init_us_2    :      0.01s CPU      0.01s WALL (      61 calls)
     cegterg      :     11.16s CPU     11.46s WALL (      94 calls)

     Called by *egterg:
     cdiaghg      :      3.57s CPU      3.64s WALL (    1452 calls)
     h_psi        :      6.43s CPU      6.64s WALL (    1546 calls)
     s_psi        :      0.05s CPU      0.05s WALL (    1546 calls)
     g_psi        :      0.04s CPU      0.04s WALL (    1391 calls)

     Called by h_psi:
     h_psi:calbec :      0.27s CPU      0.27s WALL (    1546 calls)
     vloc_psi     :      6.09s CPU      6.29s WALL (    1546 calls)
     add_vuspsi   :      0.05s CPU      0.05s WALL (    1546 calls)

     General routines
     calbec       :      0.26s CPU      0.27s WALL (    1546 calls)
     fft          :      0.04s CPU      0.09s WALL (      13 calls)
     ffts         :      0.00s CPU      0.00s WALL (       1 calls)
     fftw         :      5.74s CPU      5.93s WALL (   29926 calls)
     interpolate  :      0.00s CPU      0.00s WALL (       1 calls)
 
     Parallel routines
 
     PWSCF        :     12.85s CPU     14.55s WALL

 
   This run was terminated on:  17:31:42  22Sep2021            

=------------------------------------------------------------------------------=
   JOB DONE.
=------------------------------------------------------------------------------=
