
     Program PWSCF v.6.8 starts on 22Sep2021 at 16:33:20 

     This program is part of the open-source Quantum ESPRESSO suite
     for quantum simulation of materials; please cite
         "P. Giannozzi et al., J. Phys.:Condens. Matter 21 395502 (2009);
         "P. Giannozzi et al., J. Phys.:Condens. Matter 29 465901 (2017);
         "P. Giannozzi et al., J. Chem. Phys. 152 154105 (2020);
          URL http://www.quantum-espresso.org", 
     in publications or presentations arising from this work. More details at
     http://www.quantum-espresso.org/quote

     Parallel version (MPI), running on     4 processors

     MPI processes distributed on     1 nodes
     R & G space division:  proc/nbgrp/npool/nimage =       4
     166283 MiB available memory on the printing compute node when the environment starts
 
     Waiting for input...
     Reading input from standard input

     Current dimensions of program PWSCF are:
     Max number of different atomic species (ntypx) = 10
     Max number of k-points (npk) =  40000
     Max angular momentum in pseudopotentials (lmaxx) =  4

     Atomic positions and unit cell read from directory:
     ./pw_band.save/
     Atomic positions from file used, from input discarded
 
     file C_pbe_paw.UPF: wavefunction(s)  2S 2P renormalized

     --------------------------------------------
     DFT-D3 Dispersion Correction (3-body terms):
     --------------------------------------------
       Reference C6 values for interpolation: 

         atom   Coordination number   C6
         C          0.000            98.23
         C          0.987            86.49
         C          1.998            58.72
         C          2.999            51.56
         C          3.984            36.41

       Values used:

         atom   Coordination number  R0_AB[au]  C6      C8
         C          3.306            2.750     48.44   1400.94
         C          3.306            2.750     48.44   1400.94

         Molecular C6 ( Ry / a.u.^6 ) =       193.76

     Message from routine setup:
     using ibrav=0 with symmetry is DISCOURAGED, use correct ibrav instead

     Subspace diagonalization in iterative solution of the eigenvalue problem:
     a serial algorithm will be used

 
     Parallelization info
     --------------------
     sticks:   dense  smooth     PW     G-vecs:    dense   smooth      PW
     Min         109      60     21                11643     4560     857
     Max         110      61     22                11664     4575     868
     Sum         439     241     85                46615    18259    3449
 
     Using Slab Decomposition
 


     bravais-lattice index     =            0
     lattice parameter (alat)  =       4.6593  a.u.
     unit-cell volume          =     532.9260 (a.u.)^3
     number of atoms/cell      =            2
     number of atomic types    =            1
     number of electrons       =         8.00
     number of Kohn-Sham states=            8
     kinetic-energy cutoff     =      40.0000  Ry
     charge density cutoff     =     300.0000  Ry
     Exchange-correlation= SLA  PW   PBX  PBC
                           (   1   4   3   4   0   0   0)

     celldm(1)=   4.659324  celldm(2)=   0.000000  celldm(3)=   0.000000
     celldm(4)=   0.000000  celldm(5)=   0.000000  celldm(6)=   0.000000

     crystal axes: (cart. coord. in units of alat)
               a(1) = (   1.000000   0.000001   0.000000 )  
               a(2) = (  -0.500000   0.866026   0.000000 )  
               a(3) = (   0.000000   0.000000   6.083691 )  

     reciprocal axes: (cart. coord. in units 2 pi/alat)
               b(1) = (  1.000000  0.577349  0.000000 )  
               b(2) = ( -0.000001  1.154700  0.000000 )  
               b(3) = (  0.000000  0.000000  0.164374 )  


     PseudoPot. # 1 for C  read from file:
     ../C_pbe_paw.UPF
     MD5 check sum: 141bb66bc2884774a16346b0c33000d4
     Pseudo is Projector augmented-wave + core cor, Zval =  4.0
     Generated using &quot;atomic&quot; code by A. Dal Corso  v.6.4
     Shape of augmentation charge: PSQ
     Using radial grid of 1073 points,  4 beta functions with: 
                l(1) =   0
                l(2) =   0
                l(3) =   1
                l(4) =   1
     Q(r) pseudized with 0 coefficients 


     atomic species   valence    mass     pseudopotential
        C              4.00    12.01070     C ( 1.00)

      2 Sym. Ops. (no inversion) found



   Cartesian axes

     site n.     atom                  positions (alat units)
         1           C   tau(   1) = (  -0.0000447   0.0000258   2.7078472  )
         2           C   tau(   2) = (   0.0000401   0.5773277   2.7078550  )

     number of k points=    61  Gaussian smearing, width (Ry)=  0.1000
                       cart. coord. in units 2pi/alat
        k(    1) = (   0.0000000   0.0000000   0.0000000), wk =   0.0327869
        k(    2) = (  -0.0000000   0.0288675   0.0000000), wk =   0.0327869
        k(    3) = (  -0.0000000   0.0577350   0.0000000), wk =   0.0327869
        k(    4) = (  -0.0000000   0.0866025   0.0000000), wk =   0.0327869
        k(    5) = (  -0.0000001   0.1154700   0.0000000), wk =   0.0327869
        k(    6) = (  -0.0000001   0.1443375   0.0000000), wk =   0.0327869
        k(    7) = (  -0.0000001   0.1732050   0.0000000), wk =   0.0327869
        k(    8) = (  -0.0000001   0.2020725   0.0000000), wk =   0.0327869
        k(    9) = (  -0.0000001   0.2309400   0.0000000), wk =   0.0327869
        k(   10) = (  -0.0000001   0.2598075   0.0000000), wk =   0.0327869
        k(   11) = (  -0.0000002   0.2886749   0.0000000), wk =   0.0327869
        k(   12) = (  -0.0000002   0.3175424   0.0000000), wk =   0.0327869
        k(   13) = (  -0.0000002   0.3464099   0.0000000), wk =   0.0327869
        k(   14) = (  -0.0000002   0.3752774   0.0000000), wk =   0.0327869
        k(   15) = (  -0.0000002   0.4041449   0.0000000), wk =   0.0327869
        k(   16) = (  -0.0000002   0.4330124   0.0000000), wk =   0.0327869
        k(   17) = (  -0.0000003   0.4618799   0.0000000), wk =   0.0327869
        k(   18) = (  -0.0000003   0.4907474   0.0000000), wk =   0.0327869
        k(   19) = (  -0.0000003   0.5196149   0.0000000), wk =   0.0327869
        k(   20) = (  -0.0000003   0.5484824   0.0000000), wk =   0.0327869
        k(   21) = (  -0.0000003   0.5773499   0.0000000), wk =   0.0327869
        k(   22) = (   0.0166647   0.5773470   0.0000000), wk =   0.0327869
        k(   23) = (   0.0333297   0.5773441   0.0000000), wk =   0.0327869
        k(   24) = (   0.0499947   0.5773412   0.0000000), wk =   0.0327869
        k(   25) = (   0.0666597   0.5773383   0.0000000), wk =   0.0327869
        k(   26) = (   0.0833247   0.5773354   0.0000000), wk =   0.0327869
        k(   27) = (   0.0999897   0.5773325   0.0000000), wk =   0.0327869
        k(   28) = (   0.1166547   0.5773296   0.0000000), wk =   0.0327869
        k(   29) = (   0.1333197   0.5773267   0.0000000), wk =   0.0327869
        k(   30) = (   0.1499847   0.5773238   0.0000000), wk =   0.0327869
        k(   31) = (   0.1666497   0.5773209   0.0000000), wk =   0.0327869
        k(   32) = (   0.1833147   0.5773180   0.0000000), wk =   0.0327869
        k(   33) = (   0.1999797   0.5773151   0.0000000), wk =   0.0327869
        k(   34) = (   0.2166447   0.5773122   0.0000000), wk =   0.0327869
        k(   35) = (   0.2333097   0.5773093   0.0000000), wk =   0.0327869
        k(   36) = (   0.2499747   0.5773064   0.0000000), wk =   0.0327869
        k(   37) = (   0.2666397   0.5773035   0.0000000), wk =   0.0327869
        k(   38) = (   0.2833047   0.5773007   0.0000000), wk =   0.0327869
        k(   39) = (   0.2999697   0.5772978   0.0000000), wk =   0.0327869
        k(   40) = (   0.3166347   0.5772949   0.0000000), wk =   0.0327869
        k(   41) = (   0.3332997   0.5772920   0.0000000), wk =   0.0327869
        k(   42) = (   0.3166347   0.5484274   0.0000000), wk =   0.0327869
        k(   43) = (   0.2999697   0.5195628   0.0000000), wk =   0.0327869
        k(   44) = (   0.2833047   0.4906982   0.0000000), wk =   0.0327869
        k(   45) = (   0.2666397   0.4618336   0.0000000), wk =   0.0327869
        k(   46) = (   0.2499748   0.4329690   0.0000000), wk =   0.0327869
        k(   47) = (   0.2333098   0.4041044   0.0000000), wk =   0.0327869
        k(   48) = (   0.2166448   0.3752398   0.0000000), wk =   0.0327869
        k(   49) = (   0.1999798   0.3463752   0.0000000), wk =   0.0327869
        k(   50) = (   0.1833148   0.3175106   0.0000000), wk =   0.0327869
        k(   51) = (   0.1666498   0.2886460   0.0000000), wk =   0.0327869
        k(   52) = (   0.1499849   0.2597814   0.0000000), wk =   0.0327869
        k(   53) = (   0.1333199   0.2309168   0.0000000), wk =   0.0327869
        k(   54) = (   0.1166549   0.2020522   0.0000000), wk =   0.0327869
        k(   55) = (   0.0999899   0.1731876   0.0000000), wk =   0.0327869
        k(   56) = (   0.0833249   0.1443230   0.0000000), wk =   0.0327869
        k(   57) = (   0.0666599   0.1154584   0.0000000), wk =   0.0327869
        k(   58) = (   0.0499950   0.0865938   0.0000000), wk =   0.0327869
        k(   59) = (   0.0333300   0.0577292   0.0000000), wk =   0.0327869
        k(   60) = (   0.0166650   0.0288646   0.0000000), wk =   0.0327869
        k(   61) = (   0.0000000   0.0000000   0.0000000), wk =   0.0327869

     Dense  grid:    46615 G-vectors     FFT dimensions: (  25,  25, 160)

     Smooth grid:    18259 G-vectors     FFT dimensions: (  20,  20, 120)

     Estimated max dynamical RAM per process >      16.15 MB

     Estimated total dynamical RAM >      64.59 MB

     Check: negative core charge=   -0.000003

     The potential is recalculated from file :
     ./pw_band.save/charge-density


     negative rho (up, down):  2.005E-05 0.000E+00
     Starting wfcs are    8 randomized atomic wfcs
     Checking if some PAW data can be deallocated... 

     Band Structure Calculation
     Davidson diagonalization with overlap

     ethr =  1.25E-07,  avg # of iterations = 27.1

     total cpu time spent up to now is        7.3 secs

     End of band structure calculation

          k = 0.0000 0.0000 0.0000 (  2289 PWs)   bands (ev):

   -21.2366  -9.3321  -4.7567  -4.7495   1.4393   2.2728   2.5488   4.5101

          k =-0.0000 0.0289 0.0000 (  2289 PWs)   bands (ev):

   -21.2218  -9.3145  -4.8166  -4.7837   1.4594   2.2931   2.5691   4.5302

          k =-0.0000 0.0577 0.0000 (  2281 PWs)   bands (ev):

   -21.1775  -9.2614  -4.9972  -4.8787   1.5199   2.3540   2.6303   4.5905

          k =-0.0000 0.0866 0.0000 (  2290 PWs)   bands (ev):

   -21.1038  -9.1733  -5.2877  -5.0296   1.6206   2.4555   2.7321   4.6908

          k =-0.0000 0.1155 0.0000 (  2290 PWs)   bands (ev):

   -21.0006  -9.0501  -5.6732  -5.2255   1.7617   2.5975   2.8747   4.8312

          k =-0.0000 0.1443 0.0000 (  2280 PWs)   bands (ev):

   -20.8680  -8.8922  -6.1378  -5.4552   1.9431   2.7799   3.0581   5.0115

          k =-0.0000 0.1732 0.0000 (  2278 PWs)   bands (ev):

   -20.7063  -8.7000  -6.6658  -5.7081   2.1647   3.0027   3.2823   5.2312

          k =-0.0000 0.2021 0.0000 (  2276 PWs)   bands (ev):

   -20.5156  -8.4741  -7.2424  -5.9736   2.4265   3.2656   3.5471   5.4897

          k =-0.0000 0.2309 0.0000 (  2276 PWs)   bands (ev):

   -20.2961  -8.2151  -7.8549  -6.2428   2.7285   3.5682   3.8527   5.7833

          k =-0.0000 0.2598 0.0000 (  2282 PWs)   bands (ev):

   -20.0480  -8.4923  -7.9242  -6.5090   3.0704   3.9092   4.1988   6.0448

          k =-0.0000 0.2887 0.0000 (  2286 PWs)   bands (ev):

   -19.7718  -9.1456  -7.6024  -6.7657   3.4521   4.2837   4.5853   5.5468

          k =-0.0000 0.3175 0.0000 (  2276 PWs)   bands (ev):

   -19.4676  -9.8075  -7.2514  -7.0083   3.8734   4.6097   4.9657   5.0118

          k =-0.0000 0.3464 0.0000 (  2272 PWs)   bands (ev):

   -19.1362 -10.4712  -7.2331  -6.8736   4.1211   4.3337   5.2230   5.4760

          k =-0.0000 0.3753 0.0000 (  2264 PWs)   bands (ev):

   -18.7780 -11.1317  -7.4373  -6.4722   3.4370   4.8317   5.7134   5.9393

          k =-0.0000 0.4041 0.0000 (  2272 PWs)   bands (ev):

   -18.3940 -11.7844  -7.6181  -6.0522   2.7526   5.3618   5.9689   6.2525

          k =-0.0000 0.4330 0.0000 (  2286 PWs)   bands (ev):

   -17.9856 -12.4249  -7.7738  -5.6207   2.0878   5.8017   6.0364   6.8325

          k =-0.0000 0.4619 0.0000 (  2294 PWs)   bands (ev):

   -17.5547 -13.0485  -7.9031  -5.1894   1.4598   5.7973   6.5940   7.4513

          k =-0.0000 0.4907 0.0000 (  2282 PWs)   bands (ev):

   -17.1056 -13.6490  -8.0046  -4.7779   0.8918   5.7526   7.2414   8.1074

          k =-0.0000 0.5196 0.0000 (  2278 PWs)   bands (ev):

   -16.6488 -14.2150  -8.0778  -4.4186   0.4189   5.7172   7.9296   8.7987

          k =-0.0000 0.5485 0.0000 (  2272 PWs)   bands (ev):

   -16.2210 -14.7086  -8.1219  -4.1617   0.0931   5.6951   8.6528   9.5210

          k =-0.0000 0.5773 0.0000 (  2268 PWs)   bands (ev):

   -15.9935 -14.9582  -8.1366  -4.0663  -0.0254   5.6877   9.3455   9.4802

          k = 0.0167 0.5773 0.0000 (  2266 PWs)   bands (ev):

   -15.9893 -14.9540  -8.1589  -4.0603  -0.0268   5.7177   9.3513   9.4865

          k = 0.0333 0.5773 0.0000 (  2282 PWs)   bands (ev):

   -15.9767 -14.9415  -8.2250  -4.0425  -0.0312   5.8072   9.3690   9.5052

          k = 0.0500 0.5773 0.0000 (  2278 PWs)   bands (ev):

   -15.9556 -14.9206  -8.3331  -4.0124  -0.0386   5.9541   9.3984   9.5364

          k = 0.0667 0.5773 0.0000 (  2282 PWs)   bands (ev):

   -15.9260 -14.8916  -8.4803  -3.9704  -0.0498   6.1552   9.4394   9.5800

          k = 0.0833 0.5773 0.0000 (  2278 PWs)   bands (ev):

   -15.8881 -14.8545  -8.6627  -3.9165  -0.0655   6.4062   9.4919   9.6360

          k = 0.1000 0.5773 0.0000 (  2272 PWs)   bands (ev):

   -15.8417 -14.8096  -8.8760  -3.8506  -0.0868   6.7028   9.5556   9.7041

          k = 0.1167 0.5773 0.0000 (  2272 PWs)   bands (ev):

   -15.7869 -14.7572  -9.1162  -3.7728  -0.1146   7.0394   9.6304   9.7843

          k = 0.1333 0.5773 0.0000 (  2268 PWs)   bands (ev):

   -15.7237 -14.6975  -9.3784  -3.6831  -0.1503   7.4107   9.7159   9.8764

          k = 0.1500 0.5773 0.0000 (  2264 PWs)   bands (ev):

   -15.6521 -14.6314  -9.6582  -3.5815  -0.1957   7.8113   9.8116   9.9767

          k = 0.1666 0.5773 0.0000 (  2258 PWs)   bands (ev):

   -15.5721 -14.5593  -9.9513  -3.4683  -0.2522   8.2353   9.8787   9.9170

          k = 0.1833 0.5773 0.0000 (  2252 PWs)   bands (ev):

   -15.4837 -14.4825 -10.2535  -3.3433  -0.3212   8.6759   9.7505  10.0314

          k = 0.2000 0.5773 0.0000 (  2254 PWs)   bands (ev):

   -15.3869 -14.4024 -10.5605  -3.2065  -0.4047   9.1258   9.6102  10.1538

          k = 0.2166 0.5773 0.0000 (  2254 PWs)   bands (ev):

   -15.2818 -14.3213 -10.8675  -3.0582  -0.5041   9.4667   9.5757  10.2829

          k = 0.2333 0.5773 0.0000 (  2254 PWs)   bands (ev):

   -15.1684 -14.2425 -11.1689  -2.8984  -0.6208   9.3289  10.0104  10.4172

          k = 0.2500 0.5773 0.0000 (  2252 PWs)   bands (ev):

   -15.0466 -14.1714 -11.4575  -2.7272  -0.7555   9.2039  10.4048  10.5547

          k = 0.2666 0.5773 0.0000 (  2252 PWs)   bands (ev):

   -14.9165 -14.1159 -11.7238  -2.5446  -0.9088   9.0973  10.6923  10.7176

          k = 0.2833 0.5773 0.0000 (  2256 PWs)   bands (ev):

   -14.7782 -14.0882 -11.9543  -2.3509  -1.0810   9.0128  10.8270  10.9361

          k = 0.3000 0.5773 0.0000 (  2256 PWs)   bands (ev):

   -14.6316 -14.1039 -12.1324  -2.1460  -1.2717   8.9525  10.9542  11.0892

          k = 0.3166 0.5773 0.0000 (  2261 PWs)   bands (ev):

   -14.4768 -14.1775 -12.2425  -1.9301  -1.4797   8.9171  11.0691  11.1793

          k = 0.3333 0.5773 0.0000 (  2259 PWs)   bands (ev):

   -14.3155 -14.3127 -12.2783  -1.7069  -1.7007   8.9057  11.1648  11.1672

          k = 0.3166 0.5484 0.0000 (  2255 PWs)   bands (ev):

   -14.7394 -13.9644 -12.1625  -2.1945  -1.2191   8.9436  10.6984  11.2886

          k = 0.3000 0.5196 0.0000 (  2255 PWs)   bands (ev):

   -15.2714 -13.5821 -11.8906  -2.7296  -0.6925   9.0172   9.9190  11.2639

          k = 0.2833 0.4907 0.0000 (  2257 PWs)   bands (ev):

   -15.8371 -13.1683 -11.5330  -3.2927  -0.1266   9.0044   9.0755  10.3627

          k = 0.2666 0.4618 0.0000 (  2271 PWs)   bands (ev):

   -16.4034 -12.7237 -11.1217  -3.8690   0.4766   8.2395   8.7040   9.4838

          k = 0.2500 0.4330 0.0000 (  2271 PWs)   bands (ev):

   -16.9548 -12.2491 -10.6723  -4.4458   1.1144   7.4365   8.1227   8.6508

          k = 0.2333 0.4041 0.0000 (  2289 PWs)   bands (ev):

   -17.4832 -11.7460 -10.1944  -5.0129   1.7833   6.6757   7.4473   7.8681

          k = 0.2166 0.3752 0.0000 (  2295 PWs)   bands (ev):

   -17.9836 -11.2156  -9.6948  -5.5620   2.4797   5.9619   6.7706   7.1375

          k = 0.2000 0.3464 0.0000 (  2287 PWs)   bands (ev):

   -18.4530 -10.6600  -9.1799  -6.0864   3.1982   5.2976   6.1240   6.4600

          k = 0.1833 0.3175 0.0000 (  2285 PWs)   bands (ev):

   -18.8892 -10.0819  -8.6561  -6.5809   3.9330   4.6844   5.5194   5.8360

          k = 0.1666 0.2886 0.0000 (  2273 PWs)   bands (ev):

   -19.2908  -9.4847  -8.1301  -7.0416   4.1230   4.6767   4.9621   5.2658

          k = 0.1500 0.2598 0.0000 (  2287 PWs)   bands (ev):

   -19.6565  -8.8733  -7.6101  -7.4652   3.6141   4.4548   4.7497   5.4203

          k = 0.1333 0.2309 0.0000 (  2287 PWs)   bands (ev):

   -19.9854  -8.2536  -7.8493  -7.1040   3.1583   3.9991   4.2878   6.1530

          k = 0.1167 0.2021 0.0000 (  2281 PWs)   bands (ev):

   -20.2769  -8.1919  -7.6338  -6.6210   2.7557   3.5958   3.8802   5.8162

          k = 0.1000 0.1732 0.0000 (  2289 PWs)   bands (ev):

   -20.5305  -8.4914  -7.0253  -6.1720   2.4065   3.2455   3.5268   5.4711

          k = 0.0833 0.1443 0.0000 (  2295 PWs)   bands (ev):

   -20.7457  -8.7466  -6.4427  -5.7671   2.1110   2.9487   3.2279   5.1782

          k = 0.0667 0.1155 0.0000 (  2283 PWs)   bands (ev):

   -20.9221  -8.9565  -5.9057  -5.4171   1.8691   2.7056   2.9834   4.9381

          k = 0.0500 0.0866 0.0000 (  2281 PWs)   bands (ev):

   -21.0595  -9.1205  -5.4397  -5.1325   1.6811   2.5163   2.7932   4.7510

          k = 0.0333 0.0577 0.0000 (  2283 PWs)   bands (ev):

   -21.1579  -9.2379  -5.0738  -4.9221   1.5467   2.3810   2.6574   4.6172

          k = 0.0167 0.0289 0.0000 (  2287 PWs)   bands (ev):

   -21.2169  -9.3086  -4.8382  -4.7930   1.4661   2.2998   2.5759   4.5369

          k = 0.0000 0.0000 0.0000 (  2289 PWs)   bands (ev):

   -21.2366  -9.3321  -4.7567  -4.7495   1.4393   2.2728   2.5488   4.5101

     Writing output data file ./pw_band.save/
 
     init_run     :      0.45s CPU      0.56s WALL (       1 calls)
     electrons    :      6.18s CPU      6.35s WALL (       1 calls)

     Called by init_run:
     wfcinit      :      0.00s CPU      0.00s WALL (       1 calls)
     potinit      :      0.09s CPU      0.12s WALL (       1 calls)
     hinit0       :      0.23s CPU      0.30s WALL (       1 calls)

     Called by electrons:
     c_bands      :      6.18s CPU      6.35s WALL (       1 calls)
     v_of_rho     :      0.03s CPU      0.04s WALL (       1 calls)
     newd         :      0.01s CPU      0.03s WALL (       1 calls)
     PAW_pot      :      0.05s CPU      0.06s WALL (       1 calls)

     Called by c_bands:
     init_us_2    :      0.01s CPU      0.01s WALL (      61 calls)
     cegterg      :      5.79s CPU      5.95s WALL (     115 calls)

     Called by *egterg:
     cdiaghg      :      1.94s CPU      1.98s WALL (    1713 calls)
     h_psi        :      2.98s CPU      3.07s WALL (    1828 calls)
     s_psi        :      0.04s CPU      0.04s WALL (    1828 calls)
     g_psi        :      0.02s CPU      0.02s WALL (    1652 calls)

     Called by h_psi:
     h_psi:calbec :      0.30s CPU      0.31s WALL (    1828 calls)
     vloc_psi     :      2.60s CPU      2.67s WALL (    1828 calls)
     add_vuspsi   :      0.05s CPU      0.05s WALL (    1828 calls)

     General routines
     calbec       :      0.30s CPU      0.30s WALL (    1828 calls)
     fft          :      0.03s CPU      0.09s WALL (      13 calls)
     ffts         :      0.00s CPU      0.00s WALL (       1 calls)
     fftw         :      2.30s CPU      2.37s WALL (   15264 calls)
     interpolate  :      0.00s CPU      0.00s WALL (       1 calls)
 
     Parallel routines
 
     PWSCF        :      7.17s CPU      8.53s WALL

 
   This run was terminated on:  16:33:29  22Sep2021            

=------------------------------------------------------------------------------=
   JOB DONE.
=------------------------------------------------------------------------------=
