
     Program PWSCF v.6.8 starts on 22Sep2021 at 11:31:30 

     This program is part of the open-source Quantum ESPRESSO suite
     for quantum simulation of materials; please cite
         "P. Giannozzi et al., J. Phys.:Condens. Matter 21 395502 (2009);
         "P. Giannozzi et al., J. Phys.:Condens. Matter 29 465901 (2017);
         "P. Giannozzi et al., J. Chem. Phys. 152 154105 (2020);
          URL http://www.quantum-espresso.org", 
     in publications or presentations arising from this work. More details at
     http://www.quantum-espresso.org/quote

     Parallel version (MPI), running on     4 processors

     MPI processes distributed on     1 nodes
     R & G space division:  proc/nbgrp/npool/nimage =       4
     158803 MiB available memory on the printing compute node when the environment starts
 
     Waiting for input...
     Reading input from standard input

     Current dimensions of program PWSCF are:
     Max number of different atomic species (ntypx) = 10
     Max number of k-points (npk) =  40000
     Max angular momentum in pseudopotentials (lmaxx) =  4

     Atomic positions and unit cell read from directory:
     ../b_scf/pw_scf.save/
     Atomic positions from file used, from input discarded
 
     file C_pbe_paw.UPF: wavefunction(s)  2S 2P renormalized

     --------------------------------------------
     DFT-D3 Dispersion Correction (3-body terms):
     --------------------------------------------
       Reference C6 values for interpolation: 

         atom   Coordination number   C6
         C          0.000            98.23
         C          0.987            86.49
         C          1.998            58.72
         C          2.999            51.56
         C          3.984            36.41

       Values used:

         atom   Coordination number  R0_AB[au]  C6      C8
         C          3.306            2.750     48.44   1400.94
         C          3.306            2.750     48.44   1400.94

         Molecular C6 ( Ry / a.u.^6 ) =       193.76

     Message from routine setup:
     using ibrav=0 with symmetry is DISCOURAGED, use correct ibrav instead

     Subspace diagonalization in iterative solution of the eigenvalue problem:
     a serial algorithm will be used

 
     Parallelization info
     --------------------
     sticks:   dense  smooth     PW     G-vecs:    dense   smooth      PW
     Min         109      60     21                11643     4560     857
     Max         110      61     22                11664     4575     868
     Sum         439     241     85                46615    18259    3449
 
     Using Slab Decomposition
 


     bravais-lattice index     =            0
     lattice parameter (alat)  =       4.6593  a.u.
     unit-cell volume          =     532.9260 (a.u.)^3
     number of atoms/cell      =            2
     number of atomic types    =            1
     number of electrons       =         8.00
     number of Kohn-Sham states=            8
     kinetic-energy cutoff     =      40.0000  Ry
     charge density cutoff     =     300.0000  Ry
     Exchange-correlation= SLA  PW   PBX  PBC
                           (   1   4   3   4   0   0   0)

     celldm(1)=   4.659324  celldm(2)=   0.000000  celldm(3)=   0.000000
     celldm(4)=   0.000000  celldm(5)=   0.000000  celldm(6)=   0.000000

     crystal axes: (cart. coord. in units of alat)
               a(1) = (   1.000000   0.000001   0.000000 )  
               a(2) = (  -0.500000   0.866026   0.000000 )  
               a(3) = (   0.000000   0.000000   6.083691 )  

     reciprocal axes: (cart. coord. in units 2 pi/alat)
               b(1) = (  1.000000  0.577349  0.000000 )  
               b(2) = ( -0.000001  1.154700  0.000000 )  
               b(3) = (  0.000000  0.000000  0.164374 )  


     PseudoPot. # 1 for C  read from file:
     ../C_pbe_paw.UPF
     MD5 check sum: 141bb66bc2884774a16346b0c33000d4
     Pseudo is Projector augmented-wave + core cor, Zval =  4.0
     Generated using &quot;atomic&quot; code by A. Dal Corso  v.6.4
     Shape of augmentation charge: PSQ
     Using radial grid of 1073 points,  4 beta functions with: 
                l(1) =   0
                l(2) =   0
                l(3) =   1
                l(4) =   1
     Q(r) pseudized with 0 coefficients 


     atomic species   valence    mass     pseudopotential
        C              4.00    12.01070     C ( 1.00)

      2 Sym. Ops. (no inversion) found



   Cartesian axes

     site n.     atom                  positions (alat units)
         1           C   tau(   1) = (  -0.0000447   0.0000258   2.7078472  )
         2           C   tau(   2) = (   0.0000401   0.5773277   2.7078550  )

     number of k points=    31  Gaussian smearing, width (Ry)=  0.1000
                       cart. coord. in units 2pi/alat
        k(    1) = (   0.0000000   0.0000000   0.0000000), wk =   0.0645161
        k(    2) = (   0.0500000   0.0288675   0.0000000), wk =   0.0645161
        k(    3) = (   0.1000000   0.0577349   0.0000000), wk =   0.0645161
        k(    4) = (   0.1500000   0.0866024   0.0000000), wk =   0.0645161
        k(    5) = (   0.1999999   0.1154699   0.0000000), wk =   0.0645161
        k(    6) = (   0.2499999   0.1443373   0.0000000), wk =   0.0645161
        k(    7) = (   0.2999999   0.1732048   0.0000000), wk =   0.0645161
        k(    8) = (   0.3499999   0.2020723   0.0000000), wk =   0.0645161
        k(    9) = (   0.3999999   0.2309397   0.0000000), wk =   0.0645161
        k(   10) = (   0.4499999   0.2598072   0.0000000), wk =   0.0645161
        k(   11) = (   0.4999998   0.2886747   0.0000000), wk =   0.0645161
        k(   12) = (   0.4833298   0.3175364   0.0000000), wk =   0.0645161
        k(   13) = (   0.4666598   0.3463981   0.0000000), wk =   0.0645161
        k(   14) = (   0.4499898   0.3752599   0.0000000), wk =   0.0645161
        k(   15) = (   0.4333198   0.4041216   0.0000000), wk =   0.0645161
        k(   16) = (   0.4166498   0.4329833   0.0000000), wk =   0.0645161
        k(   17) = (   0.3999797   0.4618450   0.0000000), wk =   0.0645161
        k(   18) = (   0.3833097   0.4907068   0.0000000), wk =   0.0645161
        k(   19) = (   0.3666397   0.5195685   0.0000000), wk =   0.0645161
        k(   20) = (   0.3499697   0.5484302   0.0000000), wk =   0.0645161
        k(   21) = (   0.3332997   0.5772920   0.0000000), wk =   0.0645161
        k(   22) = (   0.2999697   0.5195628   0.0000000), wk =   0.0645161
        k(   23) = (   0.2666397   0.4618336   0.0000000), wk =   0.0645161
        k(   24) = (   0.2333098   0.4041044   0.0000000), wk =   0.0645161
        k(   25) = (   0.1999798   0.3463752   0.0000000), wk =   0.0645161
        k(   26) = (   0.1666498   0.2886460   0.0000000), wk =   0.0645161
        k(   27) = (   0.1333199   0.2309168   0.0000000), wk =   0.0645161
        k(   28) = (   0.0999899   0.1731876   0.0000000), wk =   0.0645161
        k(   29) = (   0.0666599   0.1154584   0.0000000), wk =   0.0645161
        k(   30) = (   0.0333300   0.0577292   0.0000000), wk =   0.0645161
        k(   31) = (   0.0000000   0.0000000   0.0000000), wk =   0.0645161

     Dense  grid:    46615 G-vectors     FFT dimensions: (  25,  25, 160)

     Smooth grid:    18259 G-vectors     FFT dimensions: (  20,  20, 120)

     Estimated max dynamical RAM per process >      14.06 MB

     Estimated total dynamical RAM >      56.26 MB

     Check: negative core charge=   -0.000003

     The potential is recalculated from file :
     ../b_scf/pw_scf.save/charge-density


     negative rho (up, down):  2.003E-05 0.000E+00
     Starting wfcs are    8 randomized atomic wfcs
     Checking if some PAW data can be deallocated... 

     Band Structure Calculation
     Davidson diagonalization with overlap

     ethr =  1.25E-07,  avg # of iterations = 26.3

     total cpu time spent up to now is        5.0 secs

     End of band structure calculation

          k = 0.0000 0.0000 0.0000 (  2289 PWs)   bands (ev):

   -21.2367  -9.3322  -4.7568  -4.7495   1.4393   2.2727   2.5488   4.5102

          k = 0.0500 0.0289 0.0000 (  2281 PWs)   bands (ev):

   -21.1776  -9.2615  -4.9973  -4.8788   1.5199   2.3539   2.6303   4.5905

          k = 0.1000 0.0577 0.0000 (  2290 PWs)   bands (ev):

   -21.0006  -9.0501  -5.6733  -5.2256   1.7617   2.5974   2.8748   4.8312

          k = 0.1500 0.0866 0.0000 (  2278 PWs)   bands (ev):

   -20.7064  -8.7001  -6.6658  -5.7082   2.1647   3.0027   3.2823   5.2312

          k = 0.2000 0.1155 0.0000 (  2276 PWs)   bands (ev):

   -20.2962  -8.2152  -7.8550  -6.2429   2.7285   3.5681   3.8527   5.7833

          k = 0.2500 0.1443 0.0000 (  2286 PWs)   bands (ev):

   -19.7719  -9.1457  -7.6025  -6.7658   3.4521   4.2836   4.5853   5.5468

          k = 0.3000 0.1732 0.0000 (  2272 PWs)   bands (ev):

   -19.1362 -10.4713  -7.2332  -6.8736   4.1211   4.3337   5.2229   5.4760

          k = 0.3500 0.2021 0.0000 (  2272 PWs)   bands (ev):

   -18.3941 -11.7845  -7.6181  -6.0522   2.7526   5.3618   5.9688   6.2524

          k = 0.4000 0.2309 0.0000 (  2294 PWs)   bands (ev):

   -17.5547 -13.0485  -7.9032  -5.1895   1.4597   5.7972   6.5940   7.4512

          k = 0.4500 0.2598 0.0000 (  2278 PWs)   bands (ev):

   -16.6489 -14.2151  -8.0779  -4.4186   0.4188   5.7171   7.9296   8.7986

          k = 0.5000 0.2887 0.0000 (  2268 PWs)   bands (ev):

   -15.9936 -14.9583  -8.1367  -4.0664  -0.0255   5.6876   9.3455   9.4802

          k = 0.4833 0.3175 0.0000 (  2282 PWs)   bands (ev):

   -15.9767 -14.9416  -8.2251  -4.0425  -0.0312   5.8071   9.3690   9.5052

          k = 0.4667 0.3464 0.0000 (  2282 PWs)   bands (ev):

   -15.9261 -14.8917  -8.4804  -3.9705  -0.0499   6.1551   9.4394   9.5801

          k = 0.4500 0.3753 0.0000 (  2272 PWs)   bands (ev):

   -15.8418 -14.8097  -8.8761  -3.8506  -0.0868   6.7027   9.5556   9.7042

          k = 0.4333 0.4041 0.0000 (  2268 PWs)   bands (ev):

   -15.7237 -14.6976  -9.3785  -3.6831  -0.1504   7.4106   9.7159   9.8766

          k = 0.4166 0.4330 0.0000 (  2258 PWs)   bands (ev):

   -15.5721 -14.5594  -9.9514  -3.4684  -0.2522   8.2352   9.8788   9.9170

          k = 0.4000 0.4618 0.0000 (  2254 PWs)   bands (ev):

   -15.3870 -14.4025 -10.5606  -3.2066  -0.4047   9.1257   9.6102  10.1538

          k = 0.3833 0.4907 0.0000 (  2254 PWs)   bands (ev):

   -15.1684 -14.2426 -11.1690  -2.8985  -0.6208   9.3289  10.0103  10.4173

          k = 0.3666 0.5196 0.0000 (  2252 PWs)   bands (ev):

   -14.9166 -14.1160 -11.7239  -2.5447  -0.9089   9.0973  10.6923  10.7176

          k = 0.3500 0.5484 0.0000 (  2256 PWs)   bands (ev):

   -14.6316 -14.1039 -12.1325  -2.1460  -1.2717   8.9525  10.9542  11.0892

          k = 0.3333 0.5773 0.0000 (  2259 PWs)   bands (ev):

   -14.3152 -14.3131 -12.2784  -1.7059  -1.7017   8.9056  11.1650  11.1670

          k = 0.3000 0.5196 0.0000 (  2255 PWs)   bands (ev):

   -15.2715 -13.5821 -11.8907  -2.7297  -0.6926   9.0172   9.9190  11.2640

          k = 0.2666 0.4618 0.0000 (  2271 PWs)   bands (ev):

   -16.4035 -12.7237 -11.1218  -3.8690   0.4766   8.2396   8.7039   9.4838

          k = 0.2333 0.4041 0.0000 (  2289 PWs)   bands (ev):

   -17.4832 -11.7460 -10.1945  -5.0130   1.7832   6.6758   7.4472   7.8681

          k = 0.2000 0.3464 0.0000 (  2287 PWs)   bands (ev):

   -18.4531 -10.6601  -9.1800  -6.0865   3.1982   5.2977   6.1240   6.4600

          k = 0.1666 0.2886 0.0000 (  2273 PWs)   bands (ev):

   -19.2908  -9.4848  -8.1302  -7.0416   4.1230   4.6767   4.9621   5.2658

          k = 0.1333 0.2309 0.0000 (  2287 PWs)   bands (ev):

   -19.9855  -8.2537  -7.8493  -7.1041   3.1583   3.9990   4.2878   6.1529

          k = 0.1000 0.1732 0.0000 (  2289 PWs)   bands (ev):

   -20.5305  -8.4915  -7.0254  -6.1721   2.4065   3.2454   3.5269   5.4711

          k = 0.0667 0.1155 0.0000 (  2283 PWs)   bands (ev):

   -20.9221  -8.9565  -5.9058  -5.4172   1.8692   2.7055   2.9834   4.9381

          k = 0.0333 0.0577 0.0000 (  2283 PWs)   bands (ev):

   -21.1579  -9.2380  -5.0739  -4.9222   1.5467   2.3810   2.6574   4.6173

          k = 0.0000 0.0000 0.0000 (  2289 PWs)   bands (ev):

   -21.2367  -9.3322  -4.7568  -4.7495   1.4393   2.2727   2.5488   4.5102

     Writing output data file ../b_scf/pw_scf.save/
 
     init_run     :      0.27s CPU      0.65s WALL (       1 calls)
     electrons    :      1.89s CPU      3.89s WALL (       1 calls)

     Called by init_run:
     wfcinit      :      0.00s CPU      0.00s WALL (       1 calls)
     potinit      :      0.06s CPU      0.16s WALL (       1 calls)
     hinit0       :      0.14s CPU      0.31s WALL (       1 calls)

     Called by electrons:
     c_bands      :      1.89s CPU      3.89s WALL (       1 calls)
     v_of_rho     :      0.02s CPU      0.06s WALL (       1 calls)
     newd         :      0.01s CPU      0.04s WALL (       1 calls)
     PAW_pot      :      0.03s CPU      0.06s WALL (       1 calls)

     Called by c_bands:
     init_us_2    :      0.00s CPU      0.00s WALL (      31 calls)
     cegterg      :      1.76s CPU      3.61s WALL (      56 calls)

     Called by *egterg:
     cdiaghg      :      0.19s CPU      0.44s WALL (     847 calls)
     h_psi        :      1.28s CPU      2.50s WALL (     903 calls)
     s_psi        :      0.02s CPU      0.02s WALL (     903 calls)
     g_psi        :      0.01s CPU      0.01s WALL (     816 calls)

     Called by h_psi:
     h_psi:calbec :      0.11s CPU      0.24s WALL (     903 calls)
     vloc_psi     :      1.13s CPU      2.21s WALL (     903 calls)
     add_vuspsi   :      0.03s CPU      0.03s WALL (     903 calls)

     General routines
     calbec       :      0.11s CPU      0.24s WALL (     903 calls)
     fft          :      0.03s CPU      0.12s WALL (      13 calls)
     ffts         :      0.00s CPU      0.00s WALL (       1 calls)
     fftw         :      1.01s CPU      2.08s WALL (    7598 calls)
     interpolate  :      0.00s CPU      0.00s WALL (       1 calls)
 
     Parallel routines
 
     PWSCF        :      2.50s CPU      5.96s WALL

 
   This run was terminated on:  11:31:36  22Sep2021            

=------------------------------------------------------------------------------=
   JOB DONE.
=------------------------------------------------------------------------------=
